 Gaussian 09, Revision D.01,
 Gaussian 09:  ES64L-G09RevD.01 24-Apr-2013

 ------------------------------------------
 #p wb97xd 6-311++G** td=(nstates=4) nosymm
 ------------------------------------------

 -----
 Title
 -----
 Symbolic Z-matrix:
 Charge =  0 Multiplicity = 1

                          Input orientation:
 ---------------------------------------------------------------------
 Center     Atomic      Atomic             Coordinates (Angstroms)
 Number     Number       Type             X           Y           Z
 ---------------------------------------------------------------------
      1          1           0       -0.511118   -2.858447   -1.277930
      2          6           0        0.184268   -3.640208   -0.973811
      3          6           0        0.269103   -4.798855   -1.718000
      4          6           0        0.976718   -3.420993    0.178919
      5          1           0       -0.359864   -4.913720   -2.598454
      6          6           0        1.170762   -5.834385   -1.341350
      7          6           0        0.878808   -2.180322    0.882540
      8          6           0        1.861141   -4.464382    0.551623
      9          6           0        1.961142   -5.628701   -0.172407
     10          7           0        1.278140   -6.976522   -2.065820
     11          6           0        1.585681   -1.821645    1.999082
     12          1           0        0.182215   -1.444266    0.466766
     13          1           0        2.487573   -4.353397    1.436169
     14          1           0        2.657520   -6.395843    0.157913
     15          6           0        0.460908   -7.174323   -3.253037
     16          6           0        2.211841   -8.018129   -1.656186
     17          6           0        1.467449   -0.532362    2.622715
     18          1           0        2.289600   -2.528565    2.433749
     19          1           0       -0.610241   -7.095578   -3.016782
     20          1           0        0.653370   -8.170357   -3.661002
     21          1           0        0.696525   -6.431926   -4.031589
     22          1           0        2.180453   -8.834703   -2.384121
     23          1           0        1.948639   -8.420379   -0.666002
     24          1           0        3.242108   -7.631529   -1.609305
     25          6           0        2.245913   -0.228357    3.839616
     26          8           0        0.715061    0.388406    2.136689
     27          6           0        2.912581   -1.218549    4.588630
     28          6           0        2.338798    1.120413    4.286060
     29          1           0        1.138895    1.590739    2.916420
     30          6           0        3.649563   -0.927219    5.728790
     31          1           0        2.857368   -2.258838    4.272261
     32          8           0        1.699561    2.112082    3.625623
     33          6           0        3.117416    1.429050    5.412007
     34          6           0        4.327222   -2.023253    6.505795
     35          6           0        3.752856    0.421359    6.122356
     36          1           0        3.203047    2.471438    5.719167
     37          1           0        3.902137   -2.120887    7.517750
     38          1           0        5.397803   -1.812439    6.636276
     39          1           0        4.229940   -2.986328    5.987280
     40          1           0        4.342342    0.675414    7.006038
 ---------------------------------------------------------------------

 SCF Done:  E(RwB97XD) =  -902.476480569     A.U. after   18 cycles

 Excitation energies and oscillator strengths:

 Excited state symmetry could not be determined.
 Excited State   1:      Singlet-?Sym    3.3107 eV  374.50 nm  f=1.1164  <S**2>=0.000
      74 -> 76         0.15241
      74 -> 78         0.14057
      75 -> 76         0.65679
 This state for optimization and/or second-order correction.
 Total Energy, E(TD-HF/TD-KS) =  -902.354815180
 Copying the excited state density for this state as the 1-particle RhoCI density.

 Excited state symmetry could not be determined.
 Excited State   2:      Singlet-?Sym    3.7664 eV  329.18 nm  f=0.0607  <S**2>=0.000
      72 -> 76         0.42905
      73 -> 76        -0.11378
      74 -> 76         0.47242
      74 -> 78         0.10675
      75 -> 76        -0.12463
      75 -> 78         0.11428

 Excited state symmetry could not be determined.
 Excited State   3:      Singlet-?Sym    3.7854 eV  327.53 nm  f=0.0313  <S**2>=0.000
      72 -> 76         0.49211
      72 -> 78         0.10133
      74 -> 76        -0.42793

 Excited state symmetry could not be determined.
 Excited State   4:      Singlet-?Sym    4.4780 eV  276.87 nm  f=0.0490  <S**2>=0.000
      71 -> 76         0.26732
      71 -> 78        -0.12161
      74 -> 81        -0.16516
      75 -> 78        -0.29011
      75 -> 81         0.51536

 Alpha  occ. eigenvalues --  -19.24138 -19.23138 -14.47942 -10.37983 -10.35549
 Alpha  occ. eigenvalues --  -10.35064 -10.33791 -10.33705 -10.31759 -10.30855
 Alpha  occ. eigenvalues --  -10.30807 -10.30102 -10.30009 -10.29828 -10.29492
 Alpha  occ. eigenvalues --  -10.29485 -10.29374 -10.29149 -10.28869 -10.28179
 Alpha  occ. eigenvalues --  -10.28148  -1.14549  -1.10830  -1.08184  -0.97169
 Alpha  occ. eigenvalues --   -0.95905  -0.91079  -0.87656  -0.87193  -0.86100
 Alpha  occ. eigenvalues --   -0.84732  -0.84254  -0.79492  -0.77507  -0.74701
 Alpha  occ. eigenvalues --   -0.72255  -0.71512  -0.68606  -0.66960  -0.64278
 Alpha  occ. eigenvalues --   -0.63412  -0.60675  -0.59649  -0.58809  -0.57878
 Alpha  occ. eigenvalues --   -0.57772  -0.55722  -0.54997  -0.54341  -0.52781
 Alpha  occ. eigenvalues --   -0.52084  -0.51590  -0.51464  -0.51288  -0.50842
 Alpha  occ. eigenvalues --   -0.50215  -0.49766  -0.48706  -0.48364  -0.48181
 Alpha  occ. eigenvalues --   -0.47114  -0.46230  -0.45934  -0.45332  -0.44311
 Alpha  occ. eigenvalues --   -0.42725  -0.41873  -0.41382  -0.40544  -0.35143
 Alpha  occ. eigenvalues --   -0.35026  -0.34051  -0.33333  -0.28776  -0.26960
 Alpha virt. eigenvalues --   -0.02934   0.02547   0.03310   0.03713   0.04291
 Alpha virt. eigenvalues --    0.04428   0.04878   0.05654   0.06190   0.06288
 Alpha virt. eigenvalues --    0.06669   0.06770   0.07784   0.07969   0.08128

 Mulliken charges:
               1
     1  H    0.215738
     2  C   -0.289072
     3  C   -0.270747
     4  C    0.939201
     5  H    0.188191
     6  C   -0.612353
     7  C    0.198982
     8  C   -0.686981
     9  C   -0.286971
    10  N    0.061951
    11  C    0.360665
    12  H    0.240323
    13  H    0.144661
    14  H    0.236339
    15  C   -0.388710
    16  C   -0.384969
    17  C   -0.122703
    18  H   -0.182285
    19  H    0.170737
    20  H    0.155958
    21  H    0.185373
    22  H    0.158639
    23  H    0.179814
    24  H    0.172121
    25  C    1.252871
    26  O   -0.336213
    27  C   -0.875732
    28  C   -0.271584
    29  H    0.393820
    30  C    0.062498
    31  H    0.073424
    32  O   -0.335916
    33  C   -0.419451
    34  C   -0.533962
    35  C   -0.346602
    36  H    0.233391
    37  H    0.177939
    38  H    0.167543
    39  H    0.165919
    40  H    0.208152
 Sum of Mulliken charges =   0.00000

 Dipole moment (field-independent basis, Debye):
    X=              1.3278    Y=             -9.0694    Z=             -3.4073  Tot=              9.7789
 Quadrupole moment (field-independent basis, Debye-Ang):
   XX=           -118.7007   YY=            -73.4222   ZZ=           -112.2197
   XY=            -16.5696   XZ=              9.2649   YZ=              9.8080

 Normal termination of Gaussian 09 at Fri Nov  3 14:41:48 2017.
