 Gaussian 09, Revision D.01,
 Gaussian 09:  ES64L-G09RevD.01 24-Apr-2013

 ------------------------------------------
 #p wb97xd 6-311++G** td=(nstates=4) nosymm
 ------------------------------------------

 -----
 Title
 -----
 Symbolic Z-matrix:
 Charge =  0 Multiplicity = 1

                          Input orientation:
 ---------------------------------------------------------------------
 Center     Atomic      Atomic             Coordinates (Angstroms)
 Number     Number       Type             X           Y           Z
 ---------------------------------------------------------------------
      1          1           0       -0.511118   -2.858447   -1.277930
      2          6           0        0.184268   -3.640208   -0.973811
      3          6           0        0.269103   -4.798855   -1.718000
      4          6           0        0.976718   -3.420993    0.178919
      5          1           0       -0.359864   -4.913720   -2.598454
      6          6           0        1.170762   -5.834385   -1.341350
      7          6           0        0.878808   -2.180322    0.882540
      8          6           0        1.861141   -4.464382    0.551623
      9          6           0        1.961142   -5.628701   -0.172407
     10          7           0        1.278140   -6.976522   -2.065820
     11          6           0        1.585681   -1.821645    1.999082
     12          1           0        0.182215   -1.444266    0.466766
     13          1           0        2.487573   -4.353397    1.436169
     14          1           0        2.657520   -6.395843    0.157913
     15          6           0        0.460908   -7.174323   -3.253037
     16          6           0        2.211841   -8.018129   -1.656186
     17          6           0        1.467449   -0.532362    2.622715
     18          1           0        2.289600   -2.528565    2.433749
     19          1           0       -0.610241   -7.095578   -3.016782
     20          1           0        0.653370   -8.170357   -3.661002
     21          1           0        0.696525   -6.431926   -4.031589
     22          1           0        2.180453   -8.834703   -2.384121
     23          1           0        1.948639   -8.420379   -0.666002
     24          1           0        3.242108   -7.631529   -1.609305
     25          6           0        2.245913   -0.228357    3.839616
     26          8           0        0.715061    0.388406    2.136689
     27          6           0        2.912581   -1.218549    4.588630
     28          6           0        2.338798    1.120413    4.286060
     29          1           0        1.138895    1.590739    2.916420
     30          6           0        3.649563   -0.927219    5.728790
     31          1           0        2.857368   -2.258838    4.272261
     32          8           0        1.699561    2.112082    3.625623
     33          6           0        3.117416    1.429050    5.412007
     34          6           0        4.327222   -2.023253    6.505795
     35          6           0        3.752856    0.421359    6.122356
     36          1           0        3.203047    2.471438    5.719167
     37          1           0        3.902137   -2.120887    7.517750
     38          1           0        5.397803   -1.812439    6.636276
     39          1           0        4.229940   -2.986328    5.987280
     40          1           0        4.342342    0.675414    7.006038
     41          7           0        4.096860   -0.396522   -2.065820
     42          6           0        4.914092   -0.594323   -3.253037
     43          6           0        3.163159   -1.438129   -1.656186
     44          6           0        4.204238    0.745615   -1.341350
     45          1           0        5.985241   -0.515578   -3.016782
     46          1           0        4.721630   -1.590357   -3.661002
     47          1           0        4.678475    0.148074   -4.031589
     48          1           0        3.194547   -2.254703   -2.384121
     49          1           0        3.426361   -1.840379   -0.666002
     50          1           0        2.132892   -1.051529   -1.609305
     51          6           0        3.413868    0.951299   -0.172407
     52          6           0        5.105907    1.781145   -1.718000
     53          6           0        3.513859    2.115618    0.551623
     54          1           0        2.717480    0.184157    0.157913
     55          6           0        5.190742    2.939792   -0.973811
     56          1           0        5.734864    1.666280   -2.598454
     57          6           0        4.398282    3.159007    0.178919
     58          1           0        2.887427    2.226603    1.436169
     59          1           0        5.886118    3.721553   -1.277930
     60          6           0        4.496192    4.399678    0.882540
     61          6           0        3.789319    4.758355    1.999082
     62          1           0        5.192785    5.135733    0.466766
     63          6           0        3.907551    6.047638    2.622715
     64          1           0        3.085400    4.051435    2.433749
     65          8           0        4.659939    6.968406    2.136689
     66          6           0        3.129087    6.351643    3.839616
     67          1           0        4.236105    8.170739    2.916420
     68          6           0        3.036202    7.700413    4.286060
     69          6           0        2.462429    5.361451    4.588630
     70          8           0        3.675449    8.692082    3.625623
     71          6           0        2.257594    8.009050    5.412007
     72          6           0        1.725437    5.652781    5.728790
     73          1           0        2.517632    4.321162    4.272261
     74          6           0        1.622154    7.001359    6.122356
     75          1           0        2.171953    9.051438    5.719167
     76          6           0        1.047788    4.556747    6.505795
     77          1           0        1.032658    7.255414    7.006038
     78          1           0        1.472863    4.459112    7.517750
     79          1           0       -0.022793    4.767561    6.636276
     80          1           0        1.145070    3.593672    5.987280
 ---------------------------------------------------------------------

 SCF Done:  E(RwB97XD) =  -1804.97291150     A.U. after   28 cycles

 Excitation energies and oscillator strengths:

 Excited state symmetry could not be determined.
 Excited State   1:      Singlet-?Sym    3.2321 eV  383.60 nm  f=0.1161  <S**2>=0.000
     147 -> 151        0.14663
     147 -> 154       -0.11452
     148 -> 151        0.53359
     150 -> 152        0.37770
 This state for optimization and/or second-order correction.
 Total Energy, E(TD-HF/TD-KS) =  -1804.85413305
 Copying the excited state density for this state as the 1-particle RhoCI density.

 Excited state symmetry could not be determined.
 Excited State   2:      Singlet-?Sym    3.2982 eV  375.92 nm  f=0.6382  <S**2>=0.000
     148 -> 151        0.18126
     149 -> 151       -0.13413
     150 -> 151        0.56625
     150 -> 152       -0.31512

 Excited state symmetry could not be determined.
 Excited State   3:      Singlet-?Sym    3.3466 eV  370.48 nm  f=1.3861  <S**2>=0.000
     148 -> 151       -0.33392
     149 -> 152        0.12677
     150 -> 151        0.37341
     150 -> 152        0.43525

 Excited state symmetry could not be determined.
 Excited State   4:      Singlet-?Sym    3.7280 eV  332.58 nm  f=0.0789  <S**2>=0.000
     147 -> 151        0.59744
     147 -> 154       -0.13181
     148 -> 151       -0.16210
     148 -> 154       -0.13300
     149 -> 152       -0.20166

 Alpha  occ. eigenvalues --  -19.26074 -19.24679 -19.22797 -19.21660 -14.49129
 Alpha  occ. eigenvalues --  -14.46573 -10.39468 -10.36837 -10.36427 -10.36412
 Alpha  occ. eigenvalues --  -10.34790 -10.34714 -10.33979 -10.33610 -10.33256
 Alpha  occ. eigenvalues --  -10.32756 -10.32439 -10.32201 -10.32164 -10.31470
 Alpha  occ. eigenvalues --  -10.31288 -10.31118 -10.30717 -10.30601 -10.30533
 Alpha  occ. eigenvalues --  -10.30351 -10.30244 -10.30049 -10.29284 -10.29277
 Alpha  occ. eigenvalues --  -10.28961 -10.28827 -10.28444 -10.28372 -10.28146
 Alpha  occ. eigenvalues --  -10.28060 -10.27806 -10.27583 -10.27523 -10.26970
 Alpha  occ. eigenvalues --  -10.26739 -10.26499  -1.16344  -1.13156  -1.12541
 Alpha  occ. eigenvalues --   -1.09408  -1.09343  -1.06838  -0.98527  -0.97058
 Alpha  occ. eigenvalues --   -0.95512  -0.94337  -0.92497  -0.89416  -0.88881
 Alpha  occ. eigenvalues --   -0.88439  -0.87225  -0.86085  -0.86005  -0.85627
 Alpha  occ. eigenvalues --   -0.85362  -0.84553  -0.83175  -0.82908  -0.80738
 Alpha  occ. eigenvalues --   -0.78555  -0.77992  -0.75969  -0.75925  -0.73553
 Alpha  occ. eigenvalues --   -0.73182  -0.72819  -0.70626  -0.69950  -0.69824
 Alpha  occ. eigenvalues --   -0.68256  -0.67050  -0.65619  -0.65398  -0.64708
 Alpha  occ. eigenvalues --   -0.62799  -0.62059  -0.61833  -0.60937  -0.60072
 Alpha  occ. eigenvalues --   -0.59229  -0.59005  -0.58952  -0.58132  -0.57301
 Alpha  occ. eigenvalues --   -0.56980  -0.56661  -0.56388  -0.56140  -0.55664
 Alpha  occ. eigenvalues --   -0.54198  -0.54025  -0.53641  -0.53266  -0.52948
 Alpha  occ. eigenvalues --   -0.52903  -0.52598  -0.52478  -0.52213  -0.51375
 Alpha  occ. eigenvalues --   -0.51324  -0.50679  -0.50468  -0.50332  -0.50029
 Alpha  occ. eigenvalues --   -0.49873  -0.49763  -0.49722  -0.49315  -0.49095
 Alpha  occ. eigenvalues --   -0.48815  -0.48449  -0.48242  -0.47753  -0.47505
 Alpha  occ. eigenvalues --   -0.47271  -0.46687  -0.46632  -0.46549  -0.45511
 Alpha  occ. eigenvalues --   -0.45363  -0.44702  -0.44298  -0.44012  -0.43853
 Alpha  occ. eigenvalues --   -0.43340  -0.42626  -0.42506  -0.41900  -0.40850
 Alpha  occ. eigenvalues --   -0.40186  -0.39893  -0.39076  -0.36535  -0.36360
 Alpha  occ. eigenvalues --   -0.35589  -0.34469  -0.33628  -0.33291  -0.32577
 Alpha  occ. eigenvalues --   -0.31821  -0.30123  -0.28311  -0.27313  -0.25438
 Alpha virt. eigenvalues --   -0.04431  -0.01384   0.01588   0.01988   0.02918
 Alpha virt. eigenvalues --    0.03110   0.03233   0.03662   0.04342   0.04830
 Alpha virt. eigenvalues --    0.04896   0.05034   0.05554   0.05585   0.05853

 Mulliken charges:
               1
     1  H    0.201045
     2  C   -0.160002
     3  C   -0.207557
     4  C    0.434338
     5  H    0.212586
     6  C   -0.535937
     7  C   -0.089059
     8  C   -0.207167
     9  C   -0.294526
    10  N    0.081360
    11  C   -0.134963
    12  H    0.297193
    13  H    0.215600
    14  H    0.214712
    15  C   -0.363943
    16  C   -0.371675
    17  C   -0.189297
    18  H   -0.075807
    19  H    0.176255
    20  H    0.164505
    21  H    0.181357
    22  H    0.163982
    23  H    0.184347
    24  H    0.176211
    25  C    0.586799
    26  O   -0.241931
    27  C   -0.518702
    28  C    0.086182
    29  H    0.446639
    30  C    0.141841
    31  H    0.090649
    32  O   -0.220956
    33  C    0.043288
    34  C   -0.471259
    35  C   -0.779049
    36  H    0.135563
    37  H    0.186989
    38  H    0.178719
    39  H    0.161358
    40  H    0.238334
    41  N    0.252390
    42  C   -0.322741
    43  C   -0.799986
    44  C    0.230755
    45  H    0.163736
    46  H    0.158121
    47  H    0.181589
    48  H    0.138037
    49  H    0.274143
    50  H    0.241634
    51  C   -0.048259
    52  C   -0.470306
    53  C   -0.462306
    54  H    0.031509
    55  C   -0.483388
    56  H    0.173388
    57  C    0.629442
    58  H   -0.283859
    59  H    0.207825
    60  C    0.203365
    61  C    0.119866
    62  H    0.258337
    63  C   -0.363281
    64  H    0.051688
    65  O   -0.342059
    66  C    0.891226
    67  H    0.394658
    68  C   -0.236872
    69  C   -0.074308
    70  O   -0.351095
    71  C   -0.405084
    72  C    0.026002
    73  H   -0.246666
    74  C   -0.227092
    75  H    0.232029
    76  C   -0.530380
    77  H    0.211947
    78  H    0.190696
    79  H    0.162656
    80  H    0.084620
 Sum of Mulliken charges =   0.00000

 Dipole moment (field-independent basis, Debye):
    X=             -0.5767    Y=            -19.3924    Z=             -6.0302  Tot=             20.3165
 Quadrupole moment (field-independent basis, Debye-Ang):
   XX=           -255.0834   YY=           -270.0269   ZZ=           -224.0066
   XY=            -61.3903   XZ=            -14.1313   YZ=             -6.8945

 Normal termination of Gaussian 09 at Sat Nov  4 05:32:27 2017.
