 Gaussian 09, Revision D.01,
 Gaussian 09:  ES64L-G09RevD.01 24-Apr-2013

 --------------------------------------
 #p wb97xd 6-31G* td=(nstates=4) nosymm
 --------------------------------------

 -----
 Title
 -----
 Symbolic Z-matrix:
 Charge =  0 Multiplicity = 1

                          Input orientation:
 ---------------------------------------------------------------------
 Center     Atomic      Atomic             Coordinates (Angstroms)
 Number     Number       Type             X           Y           Z
 ---------------------------------------------------------------------
      1          6           0       -0.045604   -3.212643   -0.673042
      2          6           0       -1.163557   -4.037551   -0.999057
      3          1           0       -0.121291   -2.475288    0.121883
      4          6           0        1.146608   -3.335524   -1.348586
      5          6           0       -0.997931   -4.974953   -2.055672
      6          7           0       -2.337452   -3.933160   -0.324579
      7          6           0        1.320601   -4.270503   -2.399224
      8          1           0        1.971105   -2.682196   -1.060472
      9          6           0        0.202155   -5.074774   -2.725295
     10          1           0       -1.826104   -5.611893   -2.356233
     11          6           0       -3.451039   -4.817588   -0.638286
     12          6           0       -2.482782   -2.951131    0.738607
     13          6           0        2.521300   -4.396929   -3.164451
     14          1           0        0.299534   -5.792287   -3.541330
     15          1           0       -3.150286   -5.872565   -0.549647
     16          1           0       -4.268925   -4.626441    0.063239
     17          1           0       -3.818958   -4.648925   -1.662177
     18          1           0       -2.290162   -1.933406    0.365237
     19          1           0       -3.502453   -2.991283    1.132588
     20          1           0       -1.783201   -3.152381    1.563457
     21          6           0        3.704177   -3.730044   -2.976341
     22          1           0        2.478430   -5.091951   -4.010014
     23          6           0        4.824246   -3.904072   -3.862622
     24          1           0        3.810173   -3.042685   -2.139497
     25          6           0        6.116034   -3.241308   -3.594826
     26          8           0        4.726790   -4.644034   -4.908669
     27          6           0        7.196441   -3.444502   -4.505463
     28          6           0        6.353060   -2.418884   -2.472996
     29          1           0        6.047681   -4.528914   -5.530262
     30          6           0        8.449310   -2.862065   -4.256098
     31          8           0        7.039043   -4.198267   -5.611204
     32          6           0        7.588797   -1.834009   -2.241935
     33          1           0        5.552651   -2.221827   -1.761605
     34          6           0        8.641937   -2.065551   -3.137064
     35          1           0        9.257308   -3.069135   -4.957770
     36          1           0        7.737617   -1.196134   -1.371176
     37          1           0        9.619574   -1.619592   -2.947297
     38          6           0       -2.781614   -1.929857    4.949057
     39          6           0       -3.899567   -1.104949    4.623044
     40          1           0       -2.857302   -2.667213    5.743983
     41          6           0       -1.589403   -1.806976    4.273514
     42          6           0       -3.733940   -0.167547    3.566427
     43          7           0       -5.073462   -1.209339    5.297522
     44          6           0       -1.415409   -0.871998    3.222876
     45          1           0       -0.764905   -2.460304    4.561627
     46          6           0       -2.533855   -0.067726    2.896805
     47          1           0       -4.562114    0.469394    3.265867
     48          6           0       -5.218792   -2.191368    6.360707
     49          6           0       -6.187049   -0.324912    4.983813
     50          6           0       -0.214710   -0.745572    2.457648
     51          1           0       -2.436476    0.649787    2.080770
     52          1           0       -5.026172   -3.209094    5.987337
     53          1           0       -6.238463   -2.151217    6.754688
     54          1           0       -4.519211   -1.990120    7.185557
     55          1           0       -7.004935   -0.516059    5.685339
     56          1           0       -6.554969   -0.493575    3.959922
     57          1           0       -5.886296    0.730066    5.072453
     58          6           0        0.968167   -1.412456    2.645758
     59          1           0       -0.257580   -0.050548    1.612086
     60          6           0        2.088236   -1.238428    1.759478
     61          1           0        1.074163   -2.099815    3.482603
     62          6           0        3.380024   -1.901192    2.027274
     63          8           0        1.990780   -0.498466    0.713431
     64          6           0        4.460431   -1.697998    1.116638
     65          6           0        3.617050   -2.723616    3.149104
     66          1           0        3.311671   -0.613585    0.091837
     67          8           0        4.303032   -0.944233    0.010896
     68          6           0        5.713299   -2.280435    1.366002
     69          6           0        4.852786   -3.308490    3.380164
     70          1           0        2.816640   -2.920673    3.860494
     71          6           0        5.905928   -3.076949    2.485036
     72          1           0        6.521299   -2.073366    0.664330
     73          1           0        5.001608   -3.946366    4.250925
     74          1           0        6.883564   -3.522908    2.674804
 ---------------------------------------------------------------------

 SCF Done:  E(RwB97XD) =  -1725.91015739     A.U. after   17 cycles

 Excitation energies and oscillator strengths:

 Excited state symmetry could not be determined.
 Excited State   1:      Singlet-?Sym    3.3395 eV  371.27 nm  f=0.0779  <S**2>=0.000
     139 ->143        -0.15673
     139 ->145         0.11556
     140 ->143         0.52282
     142 ->144        -0.38499
 This state for optimization and/or second-order correction.
 Total Energy, E(TD-HF/TD-KS) =  -1725.78743279
 Copying the excited state density for this state as the 1-particle RhoCI density.

 Excited state symmetry could not be determined.
 Excited State   2:      Singlet-?Sym    3.4411 eV  360.31 nm  f=0.0175  <S**2>=0.000
     141 ->143        -0.11462
     142 ->143         0.68629

 Excited state symmetry could not be determined.
 Excited State   3:      Singlet-?Sym    3.4697 eV  357.33 nm  f=2.1631  <S**2>=0.000
     140 ->143         0.38376
     141 ->144         0.15928
     141 ->147         0.11641
     142 ->144         0.52708

 Excited state symmetry could not be determined.
 Excited State   4:      Singlet-?Sym    3.8196 eV  324.60 nm  f=0.0055  <S**2>=0.000
     137 ->144         0.66439
     137 ->147         0.13842
     137 ->152        -0.11151

 Alpha  occ. eigenvalues --  -19.27649 -19.26941 -19.24656 -19.24074 -14.50637
 Alpha  occ. eigenvalues --  -14.48186 -10.40295 -10.37566 -10.37451 -10.37146
 Alpha  occ. eigenvalues --  -10.35779 -10.35751 -10.34843 -10.34622 -10.34029
 Alpha  occ. eigenvalues --  -10.33934 -10.33412 -10.33090 -10.33013 -10.32265
 Alpha  occ. eigenvalues --  -10.32193 -10.31994 -10.31891 -10.31520 -10.31440
 Alpha  occ. eigenvalues --  -10.31407 -10.31080 -10.30282 -10.30152 -10.29993
 Alpha  occ. eigenvalues --  -10.29834 -10.29418 -10.29371 -10.29358 -10.29171
 Alpha  occ. eigenvalues --  -10.29056 -10.28776 -10.28302 -10.27773 -10.27591
 Alpha  occ. eigenvalues --   -1.15451  -1.12575  -1.11571  -1.08684  -1.08537
 Alpha  occ. eigenvalues --   -1.06139  -0.97681  -0.95644  -0.94825  -0.93166
 Alpha  occ. eigenvalues --   -0.91602  -0.88723  -0.87769  -0.87562  -0.85243
 Alpha  occ. eigenvalues --   -0.85129  -0.84936  -0.84800  -0.83689  -0.82610
 Alpha  occ. eigenvalues --   -0.82433  -0.81211  -0.79923  -0.77336  -0.75065
 Alpha  occ. eigenvalues --   -0.72720  -0.72479  -0.71947  -0.69981  -0.69402
 Alpha  occ. eigenvalues --   -0.69260  -0.68387  -0.66846  -0.65696  -0.65100
 Alpha  occ. eigenvalues --   -0.63993  -0.62421  -0.61696  -0.61356  -0.60071
 Alpha  occ. eigenvalues --   -0.59372  -0.59033  -0.58347  -0.58140  -0.57552
 Alpha  occ. eigenvalues --   -0.56833  -0.56281  -0.56137  -0.55758  -0.55508
 Alpha  occ. eigenvalues --   -0.54578  -0.53625  -0.53303  -0.53218  -0.52918
 Alpha  occ. eigenvalues --   -0.52169  -0.52086  -0.51875  -0.51659  -0.51316
 Alpha  occ. eigenvalues --   -0.50714  -0.50423  -0.50247  -0.50127  -0.49315
 Alpha  occ. eigenvalues --   -0.49139  -0.48827  -0.48796  -0.48424  -0.48257
 Alpha  occ. eigenvalues --   -0.47734  -0.47053  -0.46953  -0.46620  -0.46442
 Alpha  occ. eigenvalues --   -0.45950  -0.45500  -0.44860  -0.44470  -0.43883
 Alpha  occ. eigenvalues --   -0.43743  -0.43312  -0.42981  -0.42335  -0.41923
 Alpha  occ. eigenvalues --   -0.41734  -0.40517  -0.39654  -0.39373  -0.39152
 Alpha  occ. eigenvalues --   -0.35627  -0.35442  -0.34477  -0.33543  -0.32881
 Alpha  occ. eigenvalues --   -0.32550  -0.31651  -0.31136  -0.29545  -0.27424
 Alpha  occ. eigenvalues --   -0.26983  -0.24747
 Alpha virt. eigenvalues --   -0.03172  -0.00301   0.03849   0.04891   0.06554
 Alpha virt. eigenvalues --    0.07776   0.08018   0.10277   0.10513   0.12972
 Alpha virt. eigenvalues --    0.14120   0.15087   0.15728   0.16110   0.16313

 Mulliken charges:
               1
     1  C   -0.220186
     2  C    0.372625
     3  H    0.161906
     4  C   -0.193074
     5  C   -0.234801
     6  N   -0.502605
     7  C    0.119374
     8  H    0.169822
     9  C   -0.212008
    10  H    0.158961
    11  C   -0.358329
    12  C   -0.347655
    13  C   -0.167490
    14  H    0.171677
    15  H    0.182286
    16  H    0.176565
    17  H    0.181865
    18  H    0.175645
    19  H    0.174872
    20  H    0.180226
    21  C   -0.246334
    22  H    0.196985
    23  C    0.434179
    24  H    0.179873
    25  C   -0.039632
    26  O   -0.623304
    27  C    0.339912
    28  C   -0.204688
    29  H    0.477750
    30  C   -0.212474
    31  O   -0.686745
    32  C   -0.201162
    33  H    0.198504
    34  C   -0.156980
    35  H    0.175286
    36  H    0.161746
    37  H    0.166151
    38  C   -0.229212
    39  C    0.378040
    40  H    0.169365
    41  C   -0.196229
    42  C   -0.235237
    43  N   -0.498083
    44  C    0.116478
    45  H    0.172664
    46  C   -0.212637
    47  H    0.170142
    48  C   -0.363998
    49  C   -0.363720
    50  C   -0.172990
    51  H    0.181032
    52  H    0.185269
    53  H    0.186493
    54  H    0.187244
    55  H    0.186514
    56  H    0.184550
    57  H    0.189215
    58  C   -0.238224
    59  H    0.205689
    60  C    0.443699
    61  H    0.165736
    62  C   -0.017165
    63  O   -0.626956
    64  C    0.335759
    65  C   -0.200676
    66  H    0.486614
    67  O   -0.693193
    68  C   -0.203823
    69  C   -0.186315
    70  H    0.167275
    71  C   -0.157580
    72  H    0.186325
    73  H    0.168390
    74  H    0.180802
 Sum of Mulliken charges =   0.00000

 Dipole moment (field-independent basis, Debye):
    X=            -14.0257    Y=              0.5953    Z=             12.9055  Tot=             19.0689
 Quadrupole moment (field-independent basis, Debye-Ang):
   XX=           -217.3690   YY=           -238.5146   ZZ=           -229.8971
   XY=             39.0482   XZ=             11.5694   YZ=            -41.6493

 Normal termination of Gaussian 09 at Mon Nov  6 20:50:43 2017.
