 Gaussian 09, Revision D.01,
 Gaussian 09:  ES64L-G09RevD.01 24-Apr-2013

 --------------------------------------
 #p wb97xd 6-31G* td=(nstates=4) nosymm
 --------------------------------------

 -----
 Title
 -----
 Symbolic Z-matrix:
 Charge =  0 Multiplicity = 1

                          Input orientation:
 ---------------------------------------------------------------------
 Center     Atomic      Atomic             Coordinates (Angstroms)
 Number     Number       Type             X           Y           Z
 ---------------------------------------------------------------------
      1          6           0       -0.045604   -3.212643   -0.673042
      2          6           0       -1.163557   -4.037551   -0.999057
      3          1           0       -0.121291   -2.475288    0.121883
      4          6           0        1.146608   -3.335524   -1.348586
      5          6           0       -0.997931   -4.974953   -2.055672
      6          7           0       -2.337452   -3.933160   -0.324579
      7          6           0        1.320601   -4.270503   -2.399224
      8          1           0        1.971105   -2.682196   -1.060472
      9          6           0        0.202155   -5.074774   -2.725295
     10          1           0       -1.826104   -5.611893   -2.356233
     11          6           0       -3.451039   -4.817588   -0.638286
     12          6           0       -2.482782   -2.951131    0.738607
     13          6           0        2.521300   -4.396929   -3.164451
     14          1           0        0.299534   -5.792287   -3.541330
     15          1           0       -3.150286   -5.872565   -0.549647
     16          1           0       -4.268925   -4.626441    0.063239
     17          1           0       -3.818958   -4.648925   -1.662177
     18          1           0       -2.290162   -1.933406    0.365237
     19          1           0       -3.502453   -2.991283    1.132588
     20          1           0       -1.783201   -3.152381    1.563457
     21          6           0        3.704177   -3.730044   -2.976341
     22          1           0        2.478430   -5.091951   -4.010014
     23          6           0        4.824246   -3.904072   -3.862622
     24          1           0        3.810173   -3.042685   -2.139497
     25          6           0        6.116034   -3.241308   -3.594826
     26          8           0        4.726790   -4.644034   -4.908669
     27          6           0        7.196441   -3.444502   -4.505463
     28          6           0        6.353060   -2.418884   -2.472996
     29          1           0        6.047681   -4.528914   -5.530262
     30          6           0        8.449310   -2.862065   -4.256098
     31          8           0        7.039043   -4.198267   -5.611204
     32          6           0        7.588797   -1.834009   -2.241935
     33          1           0        5.552651   -2.221827   -1.761605
     34          6           0        8.641937   -2.065551   -3.137064
     35          1           0        9.257308   -3.069135   -4.957770
     36          1           0        7.737617   -1.196134   -1.371176
     37          1           0        9.619574   -1.619592   -2.947297
 ---------------------------------------------------------------------

 SCF Done:  E(RwB97XD) =  -862.945240923     A.U. after   17 cycles

 Excitation energies and oscillator strengths:

 Excited state symmetry could not be determined.
 Excited State   1:      Singlet-?Sym    3.4377 eV  360.66 nm  f=1.1913  <S**2>=0.000
      70 -> 72        -0.17185
      70 -> 73         0.13999
      71 -> 72         0.65243
 This state for optimization and/or second-order correction.
 Total Energy, E(TD-HF/TD-KS) =  -862.818908580
 Copying the excited state density for this state as the 1-particle RhoCI density.

 Excited state symmetry could not be determined.
 Excited State   2:      Singlet-?Sym    3.8067 eV  325.70 nm  f=0.0045  <S**2>=0.000
      68 -> 72         0.66504
      68 -> 73        -0.14455
      68 -> 76         0.10759

 Excited state symmetry could not be determined.
 Excited State   3:      Singlet-?Sym    3.9557 eV  313.43 nm  f=0.0697  <S**2>=0.000
      70 -> 72         0.63404
      70 -> 73        -0.16494
      71 -> 72         0.17984
      71 -> 73         0.13101

 Excited state symmetry could not be determined.
 Excited State   4:      Singlet-?Sym    4.6716 eV  265.40 nm  f=0.0239  <S**2>=0.000
      67 -> 72         0.32719
      67 -> 73         0.15876
      70 -> 74         0.13726
      71 -> 73         0.16767
      71 -> 74         0.54786

 Alpha  occ. eigenvalues --  -19.25852 -19.25387 -14.49438 -10.38834 -10.36251
 Alpha  occ. eigenvalues --  -10.35902 -10.34761 -10.34741 -10.32558 -10.31730
 Alpha  occ. eigenvalues --  -10.31627 -10.30876 -10.30872 -10.30833 -10.30659
 Alpha  occ. eigenvalues --  -10.30578 -10.30205 -10.29907 -10.29162 -10.28829
 Alpha  occ. eigenvalues --   -1.13816  -1.09945  -1.07359  -0.96276  -0.94547
 Alpha  occ. eigenvalues --   -0.90168  -0.86500  -0.86332  -0.83996  -0.83661
 Alpha  occ. eigenvalues --   -0.82574  -0.78661  -0.73827  -0.71429  -0.70665
 Alpha  occ. eigenvalues --   -0.68242  -0.67077  -0.63792  -0.62706  -0.60432
 Alpha  occ. eigenvalues --   -0.58832  -0.58137  -0.57255  -0.56880  -0.55018
 Alpha  occ. eigenvalues --   -0.54516  -0.53313  -0.52027  -0.51715  -0.51149
 Alpha  occ. eigenvalues --   -0.50584  -0.50118  -0.49933  -0.49537  -0.48237
 Alpha  occ. eigenvalues --   -0.47343  -0.46386  -0.45752  -0.45273  -0.45088
 Alpha  occ. eigenvalues --   -0.44296  -0.42002  -0.41124  -0.40691  -0.40473
 Alpha  occ. eigenvalues --   -0.34245  -0.34060  -0.32957  -0.32484  -0.28265
 Alpha  occ. eigenvalues --   -0.26097
 Alpha virt. eigenvalues --   -0.01676   0.05143   0.06364   0.09165   0.11686
 Alpha virt. eigenvalues --    0.15168   0.16233   0.17116   0.17628   0.18790
 Alpha virt. eigenvalues --    0.19120   0.19985   0.22288   0.22921   0.23548

 Mulliken charges:
               1
     1  C   -0.229563
     2  C    0.379299
     3  H    0.164786
     4  C   -0.191892
     5  C   -0.233477
     6  N   -0.498878
     7  C    0.118992
     8  H    0.168730
     9  C   -0.209946
    10  H    0.165894
    11  C   -0.362016
    12  C   -0.362121
    13  C   -0.162550
    14  H    0.177385
    15  H    0.186232
    16  H    0.183060
    17  H    0.185234
    18  H    0.185570
    19  H    0.183247
    20  H    0.184109
    21  C   -0.241101
    22  H    0.202407
    23  C    0.437633
    24  H    0.160466
    25  C   -0.033244
    26  O   -0.619747
    27  C    0.341563
    28  C   -0.200349
    29  H    0.479439
    30  C   -0.210902
    31  O   -0.683420
    32  C   -0.189235
    33  H    0.165441
    34  C   -0.156482
    35  H    0.181082
    36  H    0.162588
    37  H    0.171766
 Sum of Mulliken charges =   0.00000

 Dipole moment (field-independent basis, Debye):
    X=             -7.1711    Y=              1.3604    Z=              5.7829  Tot=              9.3122
 Quadrupole moment (field-independent basis, Debye-Ang):
   XX=           -127.6818   YY=           -124.4973   ZZ=           -148.1144
   XY=             40.7959   XZ=             32.2562   YZ=            -21.1552

 Normal termination of Gaussian 09 at Mon Nov  6 20:54:35 2017.
