 Gaussian 09, Revision D.01,
 Gaussian 09:  ES64L-G09RevD.01 24-Apr-2013

 ---------------------------------------------
 # wb97xd 6-311++g** opt td=(nstates=1,root=1)
 ---------------------------------------------

 -----
 title
 -----
 Symbolic Z-matrix:
 Charge =  0 Multiplicity = 1

 SCF Done:  E(RwB97XD) =  -632.058017329     A.U. after   18 cycles
 SCF Done:  E(RwB97XD) =  -632.082947866     A.U. after   16 cycles
 SCF Done:  E(RwB97XD) =  -632.098835963     A.U. after   18 cycles
 SCF Done:  E(RwB97XD) =  -632.104184044     A.U. after   16 cycles
 SCF Done:  E(RwB97XD) =  -632.113152936     A.U. after   16 cycles
 SCF Done:  E(RwB97XD) =  -632.123324806     A.U. after   16 cycles
 SCF Done:  E(RwB97XD) =  -632.131358069     A.U. after   16 cycles
 SCF Done:  E(RwB97XD) =  -632.133677930     A.U. after   16 cycles
 SCF Done:  E(RwB97XD) =  -632.136180031     A.U. after   16 cycles
 SCF Done:  E(RwB97XD) =  -632.139025140     A.U. after   15 cycles
 SCF Done:  E(RwB97XD) =  -632.105870141     A.U. after   13 cycles
 SCF Done:  E(RwB97XD) =  -632.105608991     A.U. after   14 cycles
 SCF Done:  E(RwB97XD) =  -632.105229172     A.U. after   14 cycles
 SCF Done:  E(RwB97XD) =  -632.105271741     A.U. after   15 cycles
 SCF Done:  E(RwB97XD) =  -632.105290958     A.U. after   14 cycles
 SCF Done:  E(RwB97XD) =  -632.105360311     A.U. after   13 cycles
 SCF Done:  E(RwB97XD) =  -632.105427927     A.U. after   11 cycles
 SCF Done:  E(RwB97XD) =  -632.105464936     A.U. after   10 cycles
 SCF Done:  E(RwB97XD) =  -632.105485142     A.U. after   10 cycles
 SCF Done:  E(RwB97XD) =  -632.105479033     A.U. after   11 cycles

 Excitation energies and oscillator strengths:

 Excited State   1:      Singlet-A      2.3142 eV  535.75 nm  f=0.0001  <S**2>=0.000
      48 -> 52        -0.14815
      51 -> 52         0.65899
      51 -> 67        -0.11554
 This state for optimization and/or second-order correction.
 Total Energy, E(TD-HF/TD-KS) =  -632.020432420
 Copying the excited state density for this state as the 1-particle RhoCI density.

 Optimization completed.
    -- Stationary point found.

                         Standard orientation:
 ---------------------------------------------------------------------
 Center     Atomic      Atomic             Coordinates (Angstroms)
 Number     Number       Type             X           Y           Z
 ---------------------------------------------------------------------
      1          6           0       -4.034211    0.363856   -1.128661
      2          1           0       -5.102808    0.545503   -1.028939
      3          1           0       -3.582317    1.196558   -1.672940
      4          6           0       -4.322883    0.484599    1.338220
      5          1           0       -4.729591    1.497911    1.291653
      6          7           0       -3.451216    0.241664    0.200381
      7          1           0       -3.883249   -0.558362   -1.693663
      8          1           0       -3.762497    0.370010    2.264320
      9          1           0       -5.149622   -0.230138    1.333119
     10          6           0       -2.168712   -0.066568    0.365955
     11          1           0       -1.832619   -0.157886    1.392817
     12          6           0       -1.240194   -0.267659   -0.643056
     13          6           0        0.096822   -0.754093   -0.302118
     14          1           0       -1.558899   -0.277277   -1.684373
     15          8           0       -0.072035   -2.043690   -0.241188
     16          6           0        1.292032   -0.014005   -0.160547
     17          6           0        2.516846   -0.678943    0.137630
     18          6           0        1.325965    1.392888   -0.290798
     19          8           0        2.565864   -2.025943    0.269343
     20          6           0        3.683626    0.045367    0.301023
     21          6           0        2.502735    2.105162   -0.125663
     22          1           0        0.406635    1.918801   -0.528688
     23          1           0        1.674641   -2.385024    0.114764
     24          1           0        4.594623   -0.496507    0.528081
     25          6           0        3.685321    1.434991    0.172764
     26          1           0        2.498946    3.184093   -0.234253
     27          1           0        4.610563    1.984172    0.301688
 ---------------------------------------------------------------------

 The electronic state is 1-A.
 Alpha  occ. eigenvalues --  -19.27085 -19.23217 -14.45867 -10.37993 -10.37091
 Alpha  occ. eigenvalues --  -10.32400 -10.32134 -10.32013 -10.31311 -10.31231
 Alpha  occ. eigenvalues --  -10.30839 -10.29540 -10.29442 -10.26324  -1.16791
 Alpha  occ. eigenvalues --   -1.11072  -1.06455  -0.97369  -0.88983  -0.86258
 Alpha  occ. eigenvalues --   -0.85608  -0.83454  -0.78876  -0.75455  -0.70968
 Alpha  occ. eigenvalues --   -0.68749  -0.65416  -0.62169  -0.61259  -0.59489
 Alpha  occ. eigenvalues --   -0.57403  -0.56642  -0.56338  -0.53816  -0.52978
 Alpha  occ. eigenvalues --   -0.51972  -0.50355  -0.50286  -0.49218  -0.48289
 Alpha  occ. eigenvalues --   -0.48140  -0.47233  -0.46585  -0.43803  -0.43575
 Alpha  occ. eigenvalues --   -0.42875  -0.40505  -0.34790  -0.34568  -0.31376
 Alpha  occ. eigenvalues --   -0.25489
 Alpha virt. eigenvalues --   -0.01507   0.03319   0.04177   0.05000   0.05439
 Alpha virt. eigenvalues --    0.05572   0.06046   0.06515   0.07543   0.07676
 Alpha virt. eigenvalues --    0.08214   0.09124   0.09171   0.09501   0.09938

 Mulliken charges:
               1
     1  C   -0.432474
     2  H    0.179057
     3  H    0.175220
     4  C   -0.324909
     5  H    0.165026
     6  N    0.178151
     7  H    0.187979
     8  H    0.135179
     9  H    0.172689
    10  C   -0.668916
    11  H    0.152693
    12  C   -0.200608
    13  C    0.032204
    14  H    0.219437
    15  O   -0.238956
    16  C    1.082061
    17  C   -0.165755
    18  C   -0.494298
    19  O   -0.246917
    20  C   -0.260566
    21  C   -0.541845
    22  H    0.213047
    23  H    0.316829
    24  H    0.238443
    25  C   -0.310789
    26  H    0.221870
    27  H    0.216149
 Sum of Mulliken charges =   0.00000

 Dipole moment (field-independent basis, Debye):
    X=             -2.6089    Y=              4.0991    Z=              0.4456  Tot=              4.8793
 Quadrupole moment (field-independent basis, Debye-Ang):
   XX=            -63.5928   YY=            -88.7670   ZZ=            -81.8686
   XY=              3.3435   XZ=             -0.5013   YZ=             -0.3440

 Normal termination of Gaussian 09 at Mon Nov 21 22:56:45 2016.
