 Gaussian 09, Revision D.01,
 Gaussian 09:  ES64L-G09RevD.01 24-Apr-2013

 ---------------------------------------------
 # wb97xd 6-311++g** opt td=(nstates=1,root=1)
 ---------------------------------------------

 -----
 title
 -----
 Symbolic Z-matrix:
 Charge =  0 Multiplicity = 1

 SCF Done:  E(RwB97XD) =  -731.114018967     A.U. after   18 cycles
 SCF Done:  E(RwB97XD) =  -731.277584316     A.U. after   17 cycles
 SCF Done:  E(RwB97XD) =  -731.332706621     A.U. after   18 cycles
 SCF Done:  E(RwB97XD) =  -731.364595263     A.U. after   15 cycles
 SCF Done:  E(RwB97XD) =  -731.374427116     A.U. after   17 cycles
 SCF Done:  E(RwB97XD) =  -731.385462834     A.U. after   17 cycles
 SCF Done:  E(RwB97XD) =  -731.383084759     A.U. after   16 cycles
 SCF Done:  E(RwB97XD) =  -731.386024165     A.U. after   15 cycles
 SCF Done:  E(RwB97XD) =  -731.384266310     A.U. after   16 cycles
 SCF Done:  E(RwB97XD) =  -731.370929726     A.U. after   17 cycles
 SCF Done:  E(RwB97XD) =  -731.349414539     A.U. after   14 cycles
 SCF Done:  E(RwB97XD) =  -731.349506390     A.U. after   14 cycles
 SCF Done:  E(RwB97XD) =  -731.349673395     A.U. after   13 cycles
 SCF Done:  E(RwB97XD) =  -731.349787491     A.U. after   15 cycles
 SCF Done:  E(RwB97XD) =  -731.349699197     A.U. after   13 cycles
 SCF Done:  E(RwB97XD) =  -731.349562006     A.U. after   13 cycles
 SCF Done:  E(RwB97XD) =  -731.349548991     A.U. after   12 cycles
 SCF Done:  E(RwB97XD) =  -731.349540319     A.U. after   11 cycles
 SCF Done:  E(RwB97XD) =  -731.349527309     A.U. after    9 cycles
 SCF Done:  E(RwB97XD) =  -731.349517769     A.U. after    9 cycles

 Excitation energies and oscillator strengths:

 Excited State   1:      Singlet-A      2.3604 eV  525.26 nm  f=0.0002  <S**2>=0.000
      52 -> 56        -0.16220
      55 -> 56         0.66104
 This state for optimization and/or second-order correction.
 Total Energy, E(TD-HF/TD-KS) =  -731.262772976
 Copying the excited state density for this state as the 1-particle RhoCI density.

 Optimization completed.
    -- Stationary point found.

                         Standard orientation:
 ---------------------------------------------------------------------
 Center     Atomic      Atomic             Coordinates (Angstroms)
 Number     Number       Type             X           Y           Z
 ---------------------------------------------------------------------
      1          6           0       -4.368603   -0.583205    1.109879
      2          1           0       -5.427097   -0.812481    1.000682
      3          1           0       -3.884520   -1.392919    1.661637
      4          6           0       -4.598264   -0.818534   -1.354371
      5          1           0       -4.859922   -1.878041   -1.291968
      6          7           0       -3.779648   -0.437614   -0.214405
      7          1           0       -4.264908    0.346780    1.671822
      8          1           0       -4.050407   -0.642589   -2.278311
      9          1           0       -5.516327   -0.226363   -1.366892
     10          6           0       -2.528674   -0.019039   -0.373434
     11          1           0       -2.188079    0.074965   -1.398603
     12          6           0       -1.634029    0.291794    0.639640
     13          6           0       -0.343681    0.888357    0.297016
     14          1           0       -1.964367    0.295755    1.677668
     15          8           0       -0.620066    2.157979    0.197488
     16          6           0        0.917634    0.256020    0.194421
     17          6           0        2.076987    1.026855   -0.119434
     18          6           0        1.087162   -1.132632    0.374248
     19          8           0        1.997441    2.362257   -0.297447
     20          6           0        3.312397    0.419165   -0.252606
     21          6           0        2.326941   -1.743595    0.241853
     22          1           0        0.224811   -1.739889    0.627288
     23          1           0        1.071850    2.636897   -0.159496
     24          1           0        4.184642    1.013215   -0.493065
     25          6           0        3.414334   -0.952584   -0.071950
     26          1           0        2.453772   -2.809186    0.383204
     27          9           0        4.631763   -1.528927   -0.205004
 ---------------------------------------------------------------------

 The electronic state is 1-A.
 Alpha  occ. eigenvalues --  -24.83481 -19.27922 -19.23725 -14.46293 -10.40226
 Alpha  occ. eigenvalues --  -10.38591 -10.38398 -10.32712 -10.32683 -10.32629
 Alpha  occ. eigenvalues --  -10.32348 -10.31561 -10.30684 -10.30413 -10.26772
 Alpha  occ. eigenvalues --   -1.34724  -1.17790  -1.11558  -1.06863  -0.98755
 Alpha  occ. eigenvalues --   -0.89776  -0.87329  -0.86679  -0.83798  -0.79357
 Alpha  occ. eigenvalues --   -0.76246  -0.73481  -0.69555  -0.66578  -0.65392
 Alpha  occ. eigenvalues --   -0.62407  -0.60967  -0.59891  -0.58548  -0.57744
 Alpha  occ. eigenvalues --   -0.57010  -0.55557  -0.54719  -0.52742  -0.52418
 Alpha  occ. eigenvalues --   -0.51595  -0.50609  -0.50431  -0.49282  -0.48480
 Alpha  occ. eigenvalues --   -0.47938  -0.47602  -0.44868  -0.44315  -0.43068
 Alpha  occ. eigenvalues --   -0.40936  -0.35330  -0.34869  -0.32417  -0.25979
 Alpha virt. eigenvalues --   -0.01713   0.03114   0.04383   0.04469   0.04889
 Alpha virt. eigenvalues --    0.05683   0.06236   0.06443   0.07386   0.07951
 Alpha virt. eigenvalues --    0.08297   0.08864   0.09182   0.09528   0.09673

 Mulliken charges:
               1
     1  C   -0.434507
     2  H    0.177465
     3  H    0.177661
     4  C   -0.324681
     5  H    0.166937
     6  N    0.175736
     7  H    0.187815
     8  H    0.135405
     9  H    0.171850
    10  C   -0.657964
    11  H    0.155341
    12  C   -0.193743
    13  C    0.063804
    14  H    0.218156
    15  O   -0.238287
    16  C    1.059896
    17  C   -0.129103
    18  C   -0.500990
    19  O   -0.239841
    20  C   -0.102104
    21  C   -0.310597
    22  H    0.227356
    23  H    0.319103
    24  H    0.266865
    25  C   -0.471836
    26  H    0.252242
    27  F   -0.151979
 Sum of Mulliken charges =   0.00000

 Dipole moment (field-independent basis, Debye):
    X=             -3.9569    Y=             -3.6207    Z=             -0.1885  Tot=              5.3668
 Quadrupole moment (field-independent basis, Debye-Ang):
   XX=            -76.9873   YY=            -94.6604   ZZ=            -85.1655
   XY=              5.7645   XZ=              1.7598   YZ=             -0.7222

 Normal termination of Gaussian 09 at Fri Dec 23 00:07:05 2016.
