 Gaussian 09, Revision D.01,
 Gaussian 09:  ES64L-G09RevD.01 24-Apr-2013

 ---------------------------------------------
 # wb97xd 6-311++g** opt td=(nstates=1,root=1)
 ---------------------------------------------

 -----------------------------------
 2-opt with chain c=c rotated like 1
 -----------------------------------
 Symbolic Z-matrix:
 Charge =  0 Multiplicity = 1

 SCF Done:  E(RwB97XD) =  -731.265699410     A.U. after   18 cycles
 SCF Done:  E(RwB97XD) =  -731.331825481     A.U. after   17 cycles
 SCF Done:  E(RwB97XD) =  -731.337321273     A.U. after   17 cycles
 SCF Done:  E(RwB97XD) =  -731.348827093     A.U. after   17 cycles
 SCF Done:  E(RwB97XD) =  -731.349126698     A.U. after   16 cycles
 SCF Done:  E(RwB97XD) =  -731.349416837     A.U. after   15 cycles
 SCF Done:  E(RwB97XD) =  -731.349319805     A.U. after   15 cycles
 SCF Done:  E(RwB97XD) =  -731.349396248     A.U. after   13 cycles
 SCF Done:  E(RwB97XD) =  -731.349467195     A.U. after   13 cycles
 SCF Done:  E(RwB97XD) =  -731.349582817     A.U. after   13 cycles
 SCF Done:  E(RwB97XD) =  -731.349612654     A.U. after   13 cycles
 SCF Done:  E(RwB97XD) =  -731.349597798     A.U. after   13 cycles
 SCF Done:  E(RwB97XD) =  -731.349522372     A.U. after   11 cycles
 SCF Done:  E(RwB97XD) =  -731.349419297     A.U. after   11 cycles
 SCF Done:  E(RwB97XD) =  -731.349467917     A.U. after   13 cycles
 SCF Done:  E(RwB97XD) =  -731.349489060     A.U. after   11 cycles
 SCF Done:  E(RwB97XD) =  -731.349511122     A.U. after   10 cycles
 SCF Done:  E(RwB97XD) =  -731.349531820     A.U. after   10 cycles
 SCF Done:  E(RwB97XD) =  -731.349529855     A.U. after   10 cycles
 SCF Done:  E(RwB97XD) =  -731.349528815     A.U. after    9 cycles

 Excitation energies and oscillator strengths:

 Excited State   1:      Singlet-A      2.3607 eV  525.19 nm  f=0.0002  <S**2>=0.000
      52 -> 56         0.16221
      55 -> 56         0.66104
 This state for optimization and/or second-order correction.
 Total Energy, E(TD-HF/TD-KS) =  -731.262772965
 Copying the excited state density for this state as the 1-particle RhoCI density.

 Optimization completed.
    -- Stationary point found.

                         Standard orientation:
 ---------------------------------------------------------------------
 Center     Atomic      Atomic             Coordinates (Angstroms)
 Number     Number       Type             X           Y           Z
 ---------------------------------------------------------------------
      1          6           0        4.368526   -0.583482   -1.109827
      2          1           0        5.426936   -0.813118   -1.000553
      3          1           0        3.884219   -1.393023   -1.661633
      4          6           0        4.598159   -0.818390    1.354449
      5          1           0        4.860302   -1.877769    1.291952
      6          7           0        3.779519   -0.437730    0.214418
      7          1           0        4.265206    0.346544   -1.671774
      8          1           0        4.050096   -0.642822    2.278338
      9          1           0        5.515958   -0.225806    1.367162
     10          6           0        2.528617   -0.018931    0.373391
     11          1           0        2.188037    0.075229    1.398552
     12          6           0        1.634002    0.291922   -0.639699
     13          6           0        0.343661    0.888538   -0.297097
     14          1           0        1.964351    0.295851   -1.677727
     15          8           0        0.619962    2.158159   -0.197600
     16          6           0       -0.917605    0.256101   -0.194443
     17          6           0       -2.077010    1.026841    0.119443
     18          6           0       -1.087024   -1.132564   -0.374248
     19          8           0       -1.997537    2.362261    0.297481
     20          6           0       -3.312371    0.419072    0.252621
     21          6           0       -2.326762   -1.743625   -0.241833
     22          1           0       -0.224623   -1.739750   -0.627295
     23          1           0       -1.071955    2.636946    0.159529
     24          1           0       -4.184676    1.013027    0.493091
     25          6           0       -3.414202   -0.952691    0.071961
     26          1           0       -2.453504   -2.809229   -0.383162
     27          9           0       -4.631593   -1.529119    0.205025
 ---------------------------------------------------------------------

 The electronic state is 1-A.
 Alpha  occ. eigenvalues --  -24.83481 -19.27922 -19.23725 -14.46293 -10.40226
 Alpha  occ. eigenvalues --  -10.38591 -10.38398 -10.32712 -10.32683 -10.32629
 Alpha  occ. eigenvalues --  -10.32349 -10.31561 -10.30684 -10.30413 -10.26772
 Alpha  occ. eigenvalues --   -1.34724  -1.17789  -1.11559  -1.06863  -0.98755
 Alpha  occ. eigenvalues --   -0.89776  -0.87329  -0.86679  -0.83798  -0.79357
 Alpha  occ. eigenvalues --   -0.76246  -0.73481  -0.69555  -0.66578  -0.65392
 Alpha  occ. eigenvalues --   -0.62407  -0.60967  -0.59891  -0.58548  -0.57744
 Alpha  occ. eigenvalues --   -0.57010  -0.55557  -0.54719  -0.52742  -0.52418
 Alpha  occ. eigenvalues --   -0.51595  -0.50609  -0.50431  -0.49283  -0.48480
 Alpha  occ. eigenvalues --   -0.47938  -0.47602  -0.44868  -0.44315  -0.43068
 Alpha  occ. eigenvalues --   -0.40937  -0.35330  -0.34869  -0.32417  -0.25980
 Alpha virt. eigenvalues --   -0.01713   0.03114   0.04383   0.04469   0.04889
 Alpha virt. eigenvalues --    0.05683   0.06236   0.06443   0.07386   0.07951
 Alpha virt. eigenvalues --    0.08297   0.08863   0.09182   0.09528   0.09673

 Mulliken charges:
               1
     1  C   -0.434504
     2  H    0.177486
     3  H    0.177664
     4  C   -0.324710
     5  H    0.166930
     6  N    0.175752
     7  H    0.187807
     8  H    0.135400
     9  H    0.171887
    10  C   -0.658001
    11  H    0.155347
    12  C   -0.193614
    13  C    0.063719
    14  H    0.218180
    15  O   -0.238299
    16  C    1.059795
    17  C   -0.129215
    18  C   -0.500871
    19  O   -0.239855
    20  C   -0.102109
    21  C   -0.310632
    22  H    0.227350
    23  H    0.319101
    24  H    0.266863
    25  C   -0.471728
    26  H    0.252242
    27  F   -0.151982
 Sum of Mulliken charges =   0.00000

 Dipole moment (field-independent basis, Debye):
    X=              3.9575    Y=             -3.6210    Z=              0.1888  Tot=              5.3674
 Quadrupole moment (field-independent basis, Debye-Ang):
   XX=            -76.9868   YY=            -94.6616   ZZ=            -85.1655
   XY=             -5.7653   XZ=              1.7601   YZ=              0.7232

 Normal termination of Gaussian 09 at Tue Jul 25 20:57:43 2017.
