 Gaussian 09, Revision D.01,
 Gaussian 09:  ES64L-G09RevD.01 24-Apr-2013

 ---------------------------------------------
 # wb97xd 6-311++g** opt td=(nstates=1,root=1)
 ---------------------------------------------

 -----
 title
 -----
 Symbolic Z-matrix:
 Charge =  0 Multiplicity = 1

 SCF Done:  E(RwB97XD) =  -731.348907544     A.U. after   18 cycles
 SCF Done:  E(RwB97XD) =  -731.364343285     A.U. after   16 cycles
 SCF Done:  E(RwB97XD) =  -731.363831239     A.U. after   16 cycles
 SCF Done:  E(RwB97XD) =  -731.360706723     A.U. after   15 cycles
 SCF Done:  E(RwB97XD) =  -731.358511908     A.U. after   16 cycles
 SCF Done:  E(RwB97XD) =  -731.358558390     A.U. after   15 cycles
 SCF Done:  E(RwB97XD) =  -731.359454479     A.U. after   16 cycles
 SCF Done:  E(RwB97XD) =  -731.361632385     A.U. after   15 cycles
 SCF Done:  E(RwB97XD) =  -731.364804834     A.U. after   16 cycles
 SCF Done:  E(RwB97XD) =  -731.365952378     A.U. after   15 cycles
 SCF Done:  E(RwB97XD) =  -731.367520641     A.U. after   13 cycles
 SCF Done:  E(RwB97XD) =  -731.367572799     A.U. after   12 cycles
 SCF Done:  E(RwB97XD) =  -731.367605334     A.U. after   11 cycles
 SCF Done:  E(RwB97XD) =  -731.367631751     A.U. after   11 cycles
 SCF Done:  E(RwB97XD) =  -731.367642328     A.U. after   11 cycles
 SCF Done:  E(RwB97XD) =  -731.367593660     A.U. after   13 cycles
 SCF Done:  E(RwB97XD) =  -731.367600435     A.U. after   11 cycles
 SCF Done:  E(RwB97XD) =  -731.367621601     A.U. after   11 cycles
 SCF Done:  E(RwB97XD) =  -731.367632470     A.U. after   11 cycles
 SCF Done:  E(RwB97XD) =  -731.367626330     A.U. after   10 cycles

 Excitation energies and oscillator strengths:

 Excited State   1:      Singlet-A      3.2582 eV  380.53 nm  f=0.0095  <S**2>=0.000
      52 -> 56        -0.31682
      53 -> 56        -0.43492
      54 -> 56         0.28041
      55 -> 56        -0.31990
 This state for optimization and/or second-order correction.
 Total Energy, E(TD-HF/TD-KS) =  -731.247891223
 Copying the excited state density for this state as the 1-particle RhoCI density.

 Optimization completed.
    -- Stationary point found.

                         Standard orientation:
 ---------------------------------------------------------------------
 Center     Atomic      Atomic             Coordinates (Angstroms)
 Number     Number       Type             X           Y           Z
 ---------------------------------------------------------------------
      1          6           0       -3.767634   -1.531219   -0.780801
      2          1           0       -4.735994   -2.031289   -0.817883
      3          1           0       -3.410404   -1.381471   -1.811139
      4          6           0       -5.153557    0.426014   -0.235325
      5          1           0       -5.266738    0.828510   -1.252530
      6          7           0       -3.902993   -0.285714   -0.061314
      7          1           0       -3.065804   -2.191169   -0.264512
      8          1           0       -5.202668    1.257026    0.470401
      9          1           0       -5.990988   -0.244301   -0.029774
     10          6           0       -2.780506    0.449867    0.210234
     11          1           0       -2.972435    1.402407    0.690272
     12          6           0       -1.482875    0.058548   -0.035709
     13          6           0       -0.372254    0.858809    0.292953
     14          1           0       -1.263627   -0.863138   -0.561068
     15          8           0       -0.535610    2.062676    0.780295
     16          6           0        1.035192    0.487118    0.106662
     17          6           0        1.501054   -0.803951    0.446406
     18          6           0        1.961814    1.429615   -0.365697
     19          8           0        0.706634   -1.743637    1.002429
     20          6           0        2.826858   -1.149328    0.220780
     21          6           0        3.290100    1.099678   -0.572635
     22          1           0        1.613229    2.427855   -0.598905
     23          1           0       -0.138263   -1.340601    1.237192
     24          1           0        3.180982   -2.140569    0.471973
     25          6           0        3.687760   -0.194887   -0.284803
     26          1           0        4.003909    1.817209   -0.954863
     27          9           0        4.969539   -0.541597   -0.491572
 ---------------------------------------------------------------------

 The electronic state is 1-A.
 Alpha  occ. eigenvalues --  -24.81897 -19.29007 -19.20567 -14.50037 -10.37998
 Alpha  occ. eigenvalues --  -10.36893 -10.36766 -10.36466 -10.34375 -10.34076
 Alpha  occ. eigenvalues --  -10.30266 -10.29918 -10.29105 -10.29022 -10.28935
 Alpha  occ. eigenvalues --   -1.33545  -1.18580  -1.09539  -1.08389  -0.96950
 Alpha  occ. eigenvalues --   -0.90190  -0.86904  -0.85872  -0.85705  -0.81262
 Alpha  occ. eigenvalues --   -0.75097  -0.72495  -0.69927  -0.67145  -0.64841
 Alpha  occ. eigenvalues --   -0.63175  -0.60877  -0.59381  -0.59004  -0.58762
 Alpha  occ. eigenvalues --   -0.56512  -0.56455  -0.53133  -0.52559  -0.52159
 Alpha  occ. eigenvalues --   -0.51749  -0.51531  -0.50219  -0.49690  -0.49023
 Alpha  occ. eigenvalues --   -0.47520  -0.46496  -0.45840  -0.43687  -0.42575
 Alpha  occ. eigenvalues --   -0.40850  -0.33927  -0.32051  -0.30868  -0.30506
 Alpha virt. eigenvalues --   -0.01062   0.02664   0.04370   0.05054   0.05245
 Alpha virt. eigenvalues --    0.05592   0.05925   0.06420   0.06644   0.07560
 Alpha virt. eigenvalues --    0.07776   0.08064   0.08549   0.09837   0.10024

 Mulliken charges:
               1
     1  C   -0.413944
     2  H    0.182086
     3  H    0.191095
     4  C   -0.354760
     5  H    0.190287
     6  N    0.129754
     7  H    0.175437
     8  H    0.157365
     9  H    0.160764
    10  C   -0.046833
    11  H    0.229610
    12  C   -0.380995
    13  C   -0.551127
    14  H    0.191107
    15  O   -0.339745
    16  C    1.459367
    17  C   -0.861606
    18  C    0.061986
    19  O   -0.225732
    20  C   -0.281962
    21  C   -0.225429
    22  H    0.259238
    23  H    0.327144
    24  H    0.259360
    25  C   -0.375109
    26  H    0.239160
    27  F   -0.156520
 Sum of Mulliken charges =   0.00000

 Dipole moment (field-independent basis, Debye):
    X=             -6.6333    Y=             -2.1263    Z=             -1.8821  Tot=              7.2156
 Quadrupole moment (field-independent basis, Debye-Ang):
   XX=            -68.3349   YY=            -92.0045   ZZ=            -90.1506
   XY=              6.2466   XZ=              2.7035   YZ=             -3.1261

 Normal termination of Gaussian 09 at Tue Dec  6 15:48:05 2016.
