 Gaussian 09, Revision D.01,
 Gaussian 09:  ES64L-G09RevD.01 24-Apr-2013

 -----------------------
 # wb97xd 6-311++g** opt
 -----------------------

 -----------
 Geom Opt s0
 -----------
 Symbolic Z-matrix:
 Charge =  0 Multiplicity = 1

 SCF Done:  E(RwB97XD) =  -746.665202453     A.U. after   17 cycles
 SCF Done:  E(RwB97XD) =  -746.669264340     A.U. after   14 cycles
 SCF Done:  E(RwB97XD) =  -746.669592624     A.U. after   13 cycles
 SCF Done:  E(RwB97XD) =  -746.669460466     A.U. after   14 cycles
 SCF Done:  E(RwB97XD) =  -746.669653644     A.U. after   10 cycles
 SCF Done:  E(RwB97XD) =  -746.669702133     A.U. after   13 cycles
 SCF Done:  E(RwB97XD) =  -746.669801059     A.U. after   14 cycles
 SCF Done:  E(RwB97XD) =  -746.670012300     A.U. after   15 cycles
 SCF Done:  E(RwB97XD) =  -746.670291200     A.U. after   15 cycles
 SCF Done:  E(RwB97XD) =  -746.543942764     A.U. after   18 cycles
 SCF Done:  E(RwB97XD) =  -746.674901883     A.U. after   10 cycles
 SCF Done:  E(RwB97XD) =  -746.674902048     A.U. after   11 cycles
 SCF Done:  E(RwB97XD) =  -746.674902251     A.U. after   12 cycles
 SCF Done:  E(RwB97XD) =  -746.674902565     A.U. after   12 cycles
 SCF Done:  E(RwB97XD) =  -746.674902936     A.U. after   12 cycles
 SCF Done:  E(RwB97XD) =  -746.674903415     A.U. after   12 cycles
 SCF Done:  E(RwB97XD) =  -746.674903906     A.U. after   12 cycles
 SCF Done:  E(RwB97XD) =  -746.674903976     A.U. after    9 cycles
 SCF Done:  E(RwB97XD) =  -746.674904027     A.U. after   10 cycles
 SCF Done:  E(RwB97XD) =  -746.674904018     A.U. after    9 cycles
 Optimization completed.
    -- Stationary point found.

                         Standard orientation:
 ---------------------------------------------------------------------
 Center     Atomic      Atomic             Coordinates (Angstroms)
 Number     Number       Type             X           Y           Z
 ---------------------------------------------------------------------
      1          6           0       -4.167874   -2.044747    0.092329
      2          1           0       -5.148594   -2.496697    0.240750
      3          1           0       -3.741675   -2.428729   -0.842948
      4          6           0       -5.623223   -0.051328   -0.166089
      5          1           0       -6.003949   -0.318155   -1.159023
      6          7           0       -4.302651   -0.604219    0.061636
      7          1           0       -3.519255   -2.347994    0.919184
      8          1           0       -5.580193    1.035239   -0.093462
      9          1           0       -6.325800   -0.419341    0.586949
     10          6           0       -3.208279    0.176222    0.019578
     11          1           0       -3.396056    1.244845   -0.030957
     12          6           0       -1.910443   -0.228150    0.044349
     13          6           0       -0.873798    0.789722    0.025818
     14          1           0       -1.652817   -1.275826    0.070432
     15          8           0       -1.176036    1.997692    0.019495
     16          6           0        0.554282    0.403080    0.011213
     17          6           0        1.554618    1.413470    0.012786
     18          6           0        0.987028   -0.926767   -0.004492
     19          8           0        1.252594    2.711386    0.023196
     20          6           0        2.902329    1.068129    0.003939
     21          6           0        2.322946   -1.280287   -0.016277
     22          1           0        0.257613   -1.726503   -0.010976
     23          1           0        0.266143    2.764796    0.021788
     24          1           0        3.651383    1.849191    0.006518
     25          6           0        3.288343   -0.263707   -0.010595
     26          1           0        2.598591   -2.325433   -0.029702
     27          8           0        4.621209   -0.489008   -0.019953
     28          6           0        5.083424   -1.822875   -0.039107
     29          1           0        4.745829   -2.350239   -0.937871
     30          1           0        6.170292   -1.761118   -0.046387
     31          1           0        4.758803   -2.371632    0.851641
 ---------------------------------------------------------------------

 The electronic state is 1-A.
 Alpha  occ. eigenvalues --  -19.28296 -19.24818 -19.21743 -14.48643 -10.36915
 Alpha  occ. eigenvalues --  -10.35447 -10.35032 -10.34155 -10.33900 -10.33665
 Alpha  occ. eigenvalues --  -10.33434 -10.29841 -10.28479 -10.28078 -10.27055
 Alpha  occ. eigenvalues --  -10.26884  -1.18059  -1.15886  -1.12238  -1.08432
 Alpha  occ. eigenvalues --   -0.95577  -0.89119  -0.86911  -0.85012  -0.84054
 Alpha  occ. eigenvalues --   -0.81432  -0.79031  -0.72321  -0.70390  -0.68879
 Alpha  occ. eigenvalues --   -0.64997  -0.63186  -0.62224  -0.59962  -0.58230
 Alpha  occ. eigenvalues --   -0.58218  -0.57267  -0.56553  -0.55140  -0.52673
 Alpha  occ. eigenvalues --   -0.52011  -0.51443  -0.51118  -0.50997  -0.50043
 Alpha  occ. eigenvalues --   -0.49271  -0.48290  -0.47533  -0.47035  -0.46397
 Alpha  occ. eigenvalues --   -0.44602  -0.43618  -0.41343  -0.41271  -0.39554
 Alpha  occ. eigenvalues --   -0.33484  -0.30831  -0.29984  -0.28375
 Alpha virt. eigenvalues --    0.00969   0.02796   0.03889   0.04672   0.05616
 Alpha virt. eigenvalues --    0.06001   0.06178   0.06503   0.07407   0.07522
 Alpha virt. eigenvalues --    0.07720   0.08303   0.08599   0.09261   0.09581

 Mulliken charges:
               1
     1  C   -0.437266
     2  H    0.189922
     3  H    0.190113
     4  C   -0.308428
     5  H    0.186874
     6  N    0.125009
     7  H    0.180665
     8  H    0.146581
     9  H    0.169272
    10  C    0.498876
    11  H    0.223873
    12  C   -0.309819
    13  C   -0.795737
    14  H    0.123814
    15  O   -0.326254
    16  C    2.349443
    17  C    0.704735
    18  C   -1.839246
    19  O   -0.306396
    20  C   -0.524773
    21  C   -0.393671
    22  H    0.049112
    23  H    0.369760
    24  H    0.249217
    25  C   -0.787992
    26  H    0.250938
    27  O   -0.128322
    28  C   -0.389338
    29  H    0.161999
    30  H    0.216143
    31  H    0.160893
 Sum of Mulliken charges =   0.00000

 Dipole moment (field-independent basis, Debye):
    X=             -4.4122    Y=             -6.0537    Z=             -0.1949  Tot=              7.4935
 Quadrupole moment (field-independent basis, Debye-Ang):
   XX=            -61.4339   YY=            -94.8002   ZZ=            -99.0752
   XY=             -4.4904   XZ=              0.6339   YZ=             -0.2855

 Normal termination of Gaussian 09 at Tue Oct 18 21:37:06 2016.
