 Gaussian 09, Revision D.01,
 Gaussian 09:  ES64L-G09RevD.01 24-Apr-2013

 ---------------------------------------------
 # wb97xd 6-311++g** opt td=(nstates=1,root=1)
 ---------------------------------------------

 -----
 title
 -----
 Symbolic Z-matrix:
 Charge =  0 Multiplicity = 1

 SCF Done:  E(RwB97XD) =  -746.562795687     A.U. after   18 cycles
 SCF Done:  E(RwB97XD) =  -746.601461164     A.U. after   16 cycles
 SCF Done:  E(RwB97XD) =  -746.617994073     A.U. after   17 cycles
 SCF Done:  E(RwB97XD) =  -746.634765333     A.U. after   16 cycles
 SCF Done:  E(RwB97XD) =  -746.648726891     A.U. after   18 cycles
 SCF Done:  E(RwB97XD) =  -746.652680195     A.U. after   17 cycles
 SCF Done:  E(RwB97XD) =  -746.654261991     A.U. after   17 cycles
 SCF Done:  E(RwB97XD) =  -746.652896215     A.U. after   15 cycles
 SCF Done:  E(RwB97XD) =  -746.652660130     A.U. after   16 cycles
 SCF Done:  E(RwB97XD) =  -746.651730441     A.U. after   14 cycles
 SCF Done:  E(RwB97XD) =  -746.650422202     A.U. after   15 cycles
 SCF Done:  E(RwB97XD) =  -746.649734685     A.U. after   14 cycles
 SCF Done:  E(RwB97XD) =  -746.649019706     A.U. after   14 cycles
 SCF Done:  E(RwB97XD) =  -746.648485355     A.U. after   14 cycles
 SCF Done:  E(RwB97XD) =  -746.647900516     A.U. after   14 cycles
 SCF Done:  E(RwB97XD) =  -746.647373493     A.U. after   14 cycles
 SCF Done:  E(RwB97XD) =  -746.647047500     A.U. after   14 cycles
 SCF Done:  E(RwB97XD) =  -746.647030989     A.U. after   11 cycles

 Excitation energies and oscillator strengths:

 Excited State   1:      Singlet-A      3.2110 eV  386.12 nm  f=0.0432  <S**2>=0.000
      56 -> 60         0.44071
      59 -> 60         0.51328
 This state for optimization and/or second-order correction.
 Total Energy, E(TD-HF/TD-KS) =  -746.529028826
 Copying the excited state density for this state as the 1-particle RhoCI density.

 Optimization completed.
    -- Stationary point found.

                         Standard orientation:
 ---------------------------------------------------------------------
 Center     Atomic      Atomic             Coordinates (Angstroms)
 Number     Number       Type             X           Y           Z
 ---------------------------------------------------------------------
      1          6           0       -4.108531   -1.779129    0.951658
      2          1           0       -5.048029   -2.147023    1.367194
      3          1           0       -3.723513   -2.528651    0.240982
      4          6           0       -5.564976   -0.372307   -0.422260
      5          1           0       -5.569525   -0.999792   -1.327106
      6          7           0       -4.332179   -0.496167    0.328894
      7          1           0       -3.391555   -1.679749    1.769847
      8          1           0       -5.706599    0.666692   -0.725477
      9          1           0       -6.410573   -0.661445    0.206113
     10          6           0       -3.244502    0.207950   -0.137141
     11          1           0       -3.493479    1.116702   -0.672728
     12          6           0       -1.922406   -0.107311    0.081165
     13          6           0       -0.875724    0.736237   -0.291127
     14          1           0       -1.628673   -1.027475    0.572659
     15          8           0       -1.016812    1.903406   -0.869579
     16          6           0        0.561764    0.411766   -0.248430
     17          6           0        1.485177    1.352835    0.286655
     18          6           0        1.053819   -0.817214   -0.707893
     19          8           0        1.109484    2.576639    0.682257
     20          6           0        2.809691    0.992545    0.471238
     21          6           0        2.372134   -1.185051   -0.513690
     22          1           0        0.365240   -1.505055   -1.184136
     23          1           0        0.226791    2.761320    0.324959
     24          1           0        3.504917    1.698827    0.905701
     25          6           0        3.253794   -0.268408    0.082581
     26          1           0        2.704983   -2.163923   -0.829903
     27          8           0        4.560158   -0.517195    0.303495
     28          6           0        5.097170   -1.760923   -0.100655
     29          1           0        4.998005   -1.904962   -1.181514
     30          1           0        6.152605   -1.728487    0.162710
     31          1           0        4.617553   -2.592549    0.426455
 ---------------------------------------------------------------------

 The electronic state is 1-A.
 Alpha  occ. eigenvalues --  -19.27787 -19.25566 -19.20762 -14.49760 -10.36688
 Alpha  occ. eigenvalues --  -10.36291 -10.34825 -10.34726 -10.34105 -10.33793
 Alpha  occ. eigenvalues --  -10.33595 -10.29190 -10.28741 -10.28323 -10.27649
 Alpha  occ. eigenvalues --  -10.26792  -1.17646  -1.15685  -1.09290  -1.08594
 Alpha  occ. eigenvalues --   -0.95022  -0.90023  -0.86515  -0.85370  -0.83819
 Alpha  occ. eigenvalues --   -0.81679  -0.79357  -0.72278  -0.70332  -0.69338
 Alpha  occ. eigenvalues --   -0.65326  -0.63473  -0.62285  -0.59621  -0.58800
 Alpha  occ. eigenvalues --   -0.58420  -0.57386  -0.56179  -0.55887  -0.52271
 Alpha  occ. eigenvalues --   -0.52081  -0.51343  -0.51074  -0.50678  -0.49736
 Alpha  occ. eigenvalues --   -0.49546  -0.48586  -0.47745  -0.45452  -0.45251
 Alpha  occ. eigenvalues --   -0.44504  -0.43068  -0.41060  -0.40965  -0.38907
 Alpha  occ. eigenvalues --   -0.33062  -0.30852  -0.30274  -0.27944
 Alpha virt. eigenvalues --   -0.00763   0.02755   0.04009   0.04657   0.05290
 Alpha virt. eigenvalues --    0.06100   0.06300   0.06629   0.07278   0.07333
 Alpha virt. eigenvalues --    0.07824   0.08076   0.08249   0.08572   0.09218

 Mulliken charges:
               1
     1  C   -0.449306
     2  H    0.180238
     3  H    0.187754
     4  C   -0.349543
     5  H    0.182714
     6  N    0.140574
     7  H    0.183263
     8  H    0.157394
     9  H    0.160416
    10  C   -0.167709
    11  H    0.236226
    12  C   -0.191638
    13  C   -0.404726
    14  H    0.187194
    15  O   -0.363729
    16  C    1.369081
    17  C   -0.469703
    18  C   -0.453346
    19  O   -0.213259
    20  C   -0.462240
    21  C   -0.015786
    22  H    0.205971
    23  H    0.312097
    24  H    0.251771
    25  C   -0.471738
    26  H    0.203544
    27  O   -0.122502
    28  C   -0.362352
    29  H    0.164877
    30  H    0.210098
    31  H    0.164362
 Sum of Mulliken charges =   0.00000

 Dipole moment (field-independent basis, Debye):
    X=             -5.0346    Y=             -6.0615    Z=              0.2914  Tot=              7.8851
 Quadrupole moment (field-independent basis, Debye-Ang):
   XX=            -60.4302   YY=            -95.8818   ZZ=            -99.1716
   XY=             -2.2375   XZ=             -2.8769   YZ=              1.5299

 Normal termination of Gaussian 09 at Tue Dec  6 20:34:48 2016.
