 Gaussian 09, Revision D.01,
 Gaussian 09:  ES64L-G09RevD.01 24-Apr-2013

 ---------------------------------------------
 # wb97xd 6-311++g** opt td=(nstates=1,root=1)
 ---------------------------------------------

 ----------------------
 restarted optimization
 ----------------------
 Symbolic Z-matrix:
 Charge =  0 Multiplicity = 1

 SCF Done:  E(RwB97XD) =  -746.650726841     A.U. after   17 cycles
 SCF Done:  E(RwB97XD) =  -746.646407082     A.U. after   16 cycles
 SCF Done:  E(RwB97XD) =  -746.636159384     A.U. after   16 cycles
 SCF Done:  E(RwB97XD) =  -746.632565025     A.U. after   15 cycles
 SCF Done:  E(RwB97XD) =  -746.629661055     A.U. after   16 cycles
 SCF Done:  E(RwB97XD) =  -746.626777809     A.U. after   16 cycles
 SCF Done:  E(RwB97XD) =  -746.626492225     A.U. after   14 cycles
 SCF Done:  E(RwB97XD) =  -746.630989857     A.U. after   16 cycles
 SCF Done:  E(RwB97XD) =  -746.632620672     A.U. after   15 cycles
 SCF Done:  E(RwB97XD) =  -746.633134676     A.U. after   15 cycles
 SCF Done:  E(RwB97XD) =  -746.633782084     A.U. after   15 cycles
 SCF Done:  E(RwB97XD) =  -746.634362463     A.U. after   15 cycles
 SCF Done:  E(RwB97XD) =  -746.635156467     A.U. after   15 cycles
 SCF Done:  E(RwB97XD) =  -746.635627698     A.U. after   14 cycles
 SCF Done:  E(RwB97XD) =  -746.635866376     A.U. after   13 cycles
 SCF Done:  E(RwB97XD) =  -746.635939038     A.U. after   12 cycles
 SCF Done:  E(RwB97XD) =  -746.635995294     A.U. after   13 cycles
 SCF Done:  E(RwB97XD) =  -746.636032657     A.U. after   12 cycles
 SCF Done:  E(RwB97XD) =  -746.636067319     A.U. after   12 cycles
 SCF Done:  E(RwB97XD) =  -746.636089824     A.U. after   11 cycles

 Excitation energies and oscillator strengths:

 Excited State   1:      Singlet-A      2.9485 eV  420.50 nm  f=0.0192  <S**2>=0.000
      56 -> 60         0.40312
      59 -> 60         0.54241
 This state for optimization and/or second-order correction.
 Total Energy, E(TD-HF/TD-KS) =  -746.527735255
 Copying the excited state density for this state as the 1-particle RhoCI density.

 Optimization completed.
    -- Stationary point found.

                         Standard orientation:
 ---------------------------------------------------------------------
 Center     Atomic      Atomic             Coordinates (Angstroms)
 Number     Number       Type             X           Y           Z
 ---------------------------------------------------------------------
      1          6           0        4.213351    1.269572   -1.250292
      2          1           0        5.175466    1.757155   -1.414306
      3          1           0        3.874363    0.832381   -2.203515
      4          6           0        5.582831   -0.489290   -0.239642
      5          1           0        5.639254   -1.155816   -1.114212
      6          7           0        4.354049    0.278802   -0.209575
      7          1           0        3.494003    2.034309   -0.947377
      8          1           0        5.653765   -1.100912    0.661772
      9          1           0        6.440226    0.187355   -0.260093
     10          6           0        3.223644   -0.377286    0.228969
     11          1           0        3.410769   -1.162829    0.951799
     12          6           0        1.924774   -0.085617   -0.133174
     13          6           0        0.819571   -0.762390    0.390805
     14          1           0        1.699178    0.670230   -0.877255
     15          8           0        0.857561   -1.717140    1.273325
     16          6           0       -0.605386   -0.415322    0.185518
     17          6           0       -1.103616    0.830305    0.644192
     18          6           0       -1.510410   -1.335632   -0.354846
     19          8           0       -0.299512    1.728619    1.236173
     20          6           0       -2.435103    1.159111    0.462569
     21          6           0       -2.844631   -1.024448   -0.527524
     22          1           0       -1.135881   -2.306477   -0.656228
     23          1           0        0.591002    1.352992    1.286855
     24          1           0       -2.809774    2.120947    0.787854
     25          6           0       -3.304306    0.237243   -0.117595
     26          1           0       -3.511077   -1.750863   -0.970595
     27          8           0       -4.581418    0.647684   -0.240286
     28          6           0       -5.532487   -0.234123   -0.804184
     29          1           0       -5.621792   -1.153351   -0.216412
     30          1           0       -6.480801    0.299272   -0.783452
     31          1           0       -5.279479   -0.482051   -1.840279
 ---------------------------------------------------------------------

 The electronic state is 1-A.
 Alpha  occ. eigenvalues --  -19.27486 -19.27460 -19.20660 -14.49936 -10.36678
 Alpha  occ. eigenvalues --  -10.36452 -10.34676 -10.34492 -10.34247 -10.33892
 Alpha  occ. eigenvalues --  -10.33358 -10.29205 -10.28641 -10.28194 -10.27319
 Alpha  occ. eigenvalues --  -10.26838  -1.17429  -1.17163  -1.09415  -1.08648
 Alpha  occ. eigenvalues --   -0.94764  -0.90255  -0.86234  -0.85492  -0.83900
 Alpha  occ. eigenvalues --   -0.81818  -0.79370  -0.72742  -0.70171  -0.69295
 Alpha  occ. eigenvalues --   -0.65397  -0.63869  -0.62472  -0.59568  -0.58980
 Alpha  occ. eigenvalues --   -0.58703  -0.57426  -0.56083  -0.55930  -0.52244
 Alpha  occ. eigenvalues --   -0.51994  -0.51495  -0.51191  -0.50569  -0.49903
 Alpha  occ. eigenvalues --   -0.49449  -0.48660  -0.47664  -0.46355  -0.44855
 Alpha  occ. eigenvalues --   -0.44653  -0.43727  -0.40964  -0.40464  -0.39216
 Alpha  occ. eigenvalues --   -0.32819  -0.31021  -0.30293  -0.27526
 Alpha virt. eigenvalues --   -0.00607   0.02807   0.04382   0.04608   0.05434
 Alpha virt. eigenvalues --    0.05874   0.06278   0.06603   0.07133   0.07455
 Alpha virt. eigenvalues --    0.07754   0.08091   0.08365   0.08603   0.08887

 Mulliken charges:
               1
     1  C   -0.438346
     2  H    0.181535
     3  H    0.189996
     4  C   -0.355130
     5  H    0.185251
     6  N    0.140517
     7  H    0.181808
     8  H    0.161187
     9  H    0.162243
    10  C   -0.225888
    11  H    0.223123
    12  C   -0.501823
    13  C   -0.477259
    14  H    0.240133
    15  O   -0.299127
    16  C    1.393735
    17  C   -0.412392
    18  C   -0.256916
    19  O   -0.236991
    20  C   -0.677881
    21  C    0.181721
    22  H    0.237492
    23  H    0.347341
    24  H    0.247280
    25  C   -0.430688
    26  H    0.200279
    27  O   -0.125125
    28  C   -0.374881
    29  H    0.166293
    30  H    0.207892
    31  H    0.164620
 Sum of Mulliken charges =   0.00000

 Dipole moment (field-independent basis, Debye):
    X=              4.8698    Y=              0.6500    Z=             -3.9154  Tot=              6.2823
 Quadrupole moment (field-independent basis, Debye-Ang):
   XX=            -52.3403   YY=           -100.3826   ZZ=            -99.0745
   XY=              8.3635   XZ=             -0.1827   YZ=              3.0939

 Normal termination of Gaussian 09 at Thu Jul 20 01:39:10 2017.
