 Gaussian 09, Revision D.01,
 Gaussian 09:  ES64L-G09RevD.01 24-Apr-2013

 ---------------------------------------------
 # wb97xd 6-311++g** opt td=(nstates=1,root=1)
 ---------------------------------------------

 -----
 title
 -----
 Symbolic Z-matrix:
 Charge =  0 Multiplicity = 1

 SCF Done:  E(RwB97XD) =  -731.351304659     A.U. after   18 cycles
 SCF Done:  E(RwB97XD) =  -731.361749157     A.U. after   16 cycles
 SCF Done:  E(RwB97XD) =  -731.360137820     A.U. after   15 cycles
 SCF Done:  E(RwB97XD) =  -731.358013645     A.U. after   15 cycles
 SCF Done:  E(RwB97XD) =  -731.354857801     A.U. after   15 cycles
 SCF Done:  E(RwB97XD) =  -731.353555075     A.U. after   15 cycles
 SCF Done:  E(RwB97XD) =  -731.352480570     A.U. after   17 cycles
 SCF Done:  E(RwB97XD) =  -731.356943656     A.U. after   15 cycles
 SCF Done:  E(RwB97XD) =  -731.361088196     A.U. after   16 cycles
 SCF Done:  E(RwB97XD) =  -731.365350064     A.U. after   17 cycles
 SCF Done:  E(RwB97XD) =  -731.365850370     A.U. after   16 cycles
 SCF Done:  E(RwB97XD) =  -731.365153102     A.U. after   13 cycles
 SCF Done:  E(RwB97XD) =  -731.365002497     A.U. after   15 cycles
 SCF Done:  E(RwB97XD) =  -731.365180970     A.U. after   14 cycles
 SCF Done:  E(RwB97XD) =  -731.365207161     A.U. after   13 cycles
 SCF Done:  E(RwB97XD) =  -731.365323591     A.U. after   13 cycles
 SCF Done:  E(RwB97XD) =  -731.365382858     A.U. after   12 cycles
 SCF Done:  E(RwB97XD) =  -731.365393126     A.U. after   12 cycles
 SCF Done:  E(RwB97XD) =  -731.365392942     A.U. after   10 cycles
 SCF Done:  E(RwB97XD) =  -731.365387613     A.U. after   10 cycles

 Excitation energies and oscillator strengths:

 Excited State   1:      Singlet-A      3.2475 eV  381.78 nm  f=0.0016  <S**2>=0.000
      52 -> 56        -0.21715
      53 -> 56        -0.62822
      54 -> 56         0.16465
 This state for optimization and/or second-order correction.
 Total Energy, E(TD-HF/TD-KS) =  -731.246044622
 Copying the excited state density for this state as the 1-particle RhoCI density.

 Optimization completed.
    -- Stationary point found.

                         Standard orientation:
 ---------------------------------------------------------------------
 Center     Atomic      Atomic             Coordinates (Angstroms)
 Number     Number       Type             X           Y           Z
 ---------------------------------------------------------------------
      1          6           0        3.877030    1.221253   -0.884432
      2          1           0        4.901008    1.585169   -0.972642
      3          1           0        3.479395    1.041057   -1.894110
      4          6           0        5.037186   -0.824022   -0.143195
      5          1           0        5.145421   -1.301593   -1.127240
      6          7           0        3.864418    0.024918   -0.073382
      7          1           0        3.279508    2.006199   -0.413510
      8          1           0        4.968199   -1.606777    0.613623
      9          1           0        5.934491   -0.234824    0.058695
     10          6           0        2.669145   -0.543809    0.257631
     11          1           0        2.751822   -1.482658    0.792771
     12          6           0        1.428308   -0.007838    0.005349
     13          6           0        0.230641   -0.666083    0.374483
     14          1           0        1.315325    0.903560   -0.567669
     15          8           0        0.308519   -1.888752    0.839674
     16          6           0       -1.119221   -0.155105    0.178755
     17          6           0       -1.427478    1.218282    0.319096
     18          6           0       -2.162006   -1.052032   -0.119650
     19          8           0       -0.509394    2.145373    0.700963
     20          6           0       -2.717839    1.665501    0.080867
     21          6           0       -3.433358   -0.568445   -0.334294
     22          1           0       -1.964831   -2.110709   -0.222854
     23          1           0        0.257456    1.696091    1.072022
     24          1           0       -2.921147    2.723437    0.193758
     25          6           0       -3.733654    0.778513   -0.254972
     26          9           0       -4.415409   -1.440580   -0.643017
     27          1           0       -4.744397    1.121587   -0.434950
 ---------------------------------------------------------------------

 The electronic state is 1-A.
 Alpha  occ. eigenvalues --  -24.81087 -19.28659 -19.20449 -14.49865 -10.36896
 Alpha  occ. eigenvalues --  -10.36785 -10.36241 -10.36093 -10.34267 -10.33967
 Alpha  occ. eigenvalues --  -10.30740 -10.30389 -10.29930 -10.29645 -10.28685
 Alpha  occ. eigenvalues --   -1.32605  -1.18015  -1.09428  -1.08316  -0.97090
 Alpha  occ. eigenvalues --   -0.89931  -0.87530  -0.85614  -0.85228  -0.81310
 Alpha  occ. eigenvalues --   -0.75862  -0.71518  -0.69927  -0.66754  -0.64451
 Alpha  occ. eigenvalues --   -0.63493  -0.61309  -0.60041  -0.58936  -0.58028
 Alpha  occ. eigenvalues --   -0.55738  -0.54672  -0.53032  -0.52725  -0.52344
 Alpha  occ. eigenvalues --   -0.51719  -0.51105  -0.50143  -0.49739  -0.49402
 Alpha  occ. eigenvalues --   -0.47416  -0.46715  -0.45815  -0.43537  -0.42119
 Alpha  occ. eigenvalues --   -0.40908  -0.34355  -0.32116  -0.30654  -0.30153
 Alpha virt. eigenvalues --   -0.01449   0.02701   0.04406   0.04873   0.05016
 Alpha virt. eigenvalues --    0.05624   0.05765   0.06901   0.07059   0.07581
 Alpha virt. eigenvalues --    0.07759   0.07975   0.08488   0.09806   0.10310

 Mulliken charges:
               1
     1  C   -0.414442
     2  H    0.181925
     3  H    0.191912
     4  C   -0.354117
     5  H    0.190958
     6  N    0.129881
     7  H    0.176597
     8  H    0.154988
     9  H    0.161670
    10  C   -0.017586
    11  H    0.229527
    12  C   -0.254897
    13  C   -0.604439
    14  H    0.171196
    15  O   -0.340278
    16  C    1.581463
    17  C   -1.092339
    18  C    0.111179
    19  O   -0.240251
    20  C   -0.441399
    21  C   -0.530484
    22  H    0.277432
    23  H    0.315788
    24  H    0.239705
    25  C    0.097887
    26  F   -0.165091
    27  H    0.243215
 Sum of Mulliken charges =   0.00000

 Dipole moment (field-independent basis, Debye):
    X=              6.2548    Y=              2.9931    Z=             -1.5177  Tot=              7.0982
 Quadrupole moment (field-independent basis, Debye-Ang):
   XX=            -63.2862   YY=            -93.8165   ZZ=            -90.2657
   XY=             -5.8904   XZ=             -3.0558   YZ=              1.0931

 Normal termination of Gaussian 09 at Fri Dec  2 18:25:12 2016.
