 Gaussian 09, Revision D.01,
 Gaussian 09:  ES64L-G09RevD.01 24-Apr-2013

 ---------------------------------------------
 # wb97xd 6-311++g** opt td=(nstates=1,root=1)
 ---------------------------------------------

 ----------------------
 restarted optimization
 ----------------------
 Symbolic Z-matrix:
 Charge =  0 Multiplicity = 1

 SCF Done:  E(RwB97XD) =  -746.636743483     A.U. after   19 cycles
 SCF Done:  E(RwB97XD) =  -746.641920055     A.U. after   16 cycles
 SCF Done:  E(RwB97XD) =  -746.642200239     A.U. after   15 cycles
 SCF Done:  E(RwB97XD) =  -746.642251775     A.U. after   14 cycles
 SCF Done:  E(RwB97XD) =  -746.642224290     A.U. after   14 cycles
 SCF Done:  E(RwB97XD) =  -746.642205068     A.U. after   14 cycles
 SCF Done:  E(RwB97XD) =  -746.642149905     A.U. after   13 cycles
 SCF Done:  E(RwB97XD) =  -746.642075952     A.U. after   13 cycles
 SCF Done:  E(RwB97XD) =  -746.642074026     A.U. after   12 cycles
 SCF Done:  E(RwB97XD) =  -746.642068145     A.U. after   12 cycles
 SCF Done:  E(RwB97XD) =  -746.642074840     A.U. after   11 cycles
 SCF Done:  E(RwB97XD) =  -746.642082548     A.U. after   10 cycles
 SCF Done:  E(RwB97XD) =  -746.642087440     A.U. after   10 cycles
 SCF Done:  E(RwB97XD) =  -746.642091921     A.U. after   10 cycles

 Excitation energies and oscillator strengths:

 Excited State   1:      Singlet-A      3.2293 eV  383.94 nm  f=0.0026  <S**2>=0.000
      56 -> 60        -0.27552
      57 -> 60         0.62378
 This state for optimization and/or second-order correction.
 Total Energy, E(TD-HF/TD-KS) =  -746.523418366
 Copying the excited state density for this state as the 1-particle RhoCI density.

 Optimization completed.
    -- Stationary point found.

                         Standard orientation:
 ---------------------------------------------------------------------
 Center     Atomic      Atomic             Coordinates (Angstroms)
 Number     Number       Type             X           Y           Z
 ---------------------------------------------------------------------
      1          6           0       -4.311438    1.057404    0.989874
      2          1           0       -5.348681    1.364516    1.127798
      3          1           0       -3.866460    0.867841    1.978453
      4          6           0       -5.370070   -1.045368    0.275828
      5          1           0       -5.365712   -1.551968    1.251804
      6          7           0       -4.270938   -0.110243    0.139331
      7          1           0       -3.772797    1.885671    0.522577
      8          1           0       -5.304527   -1.804478   -0.505263
      9          1           0       -6.320539   -0.519800    0.160074
     10          6           0       -3.056524   -0.603425   -0.252874
     11          1           0       -3.110070   -1.525753   -0.819684
     12          6           0       -1.837102   -0.012069   -0.022638
     13          6           0       -0.622322   -0.584071   -0.466082
     14          1           0       -1.750233    0.881328    0.582303
     15          8           0       -0.648975   -1.772961   -1.014521
     16          6           0        0.709874   -0.018080   -0.273756
     17          6           0        0.946521    1.375096   -0.350842
     18          6           0        1.795548   -0.874680   -0.049204
     19          8           0       -0.027337    2.278076   -0.657258
     20          6           0        2.219811    1.858406   -0.123382
     21          6           0        3.074742   -0.373138    0.163947
     22          1           0        1.642337   -1.944699    0.003214
     23          1           0       -0.772662    1.813013   -1.050821
     24          1           0        2.379622    2.928387   -0.184323
     25          6           0        3.287248    1.001516    0.142387
     26          1           0        4.268109    1.425700    0.310420
     27          8           0        4.042150   -1.303151    0.393651
     28          6           0        5.357793   -0.849676    0.610650
     29          1           0        5.743047   -0.302005   -0.257522
     30          1           0        5.421994   -0.211301    1.499886
     31          1           0        5.961948   -1.741951    0.767355
 ---------------------------------------------------------------------

 The electronic state is 1-A.
 Alpha  occ. eigenvalues --  -19.27620 -19.27315 -19.19807 -14.49229 -10.36176
 Alpha  occ. eigenvalues --  -10.35494 -10.34780 -10.34113 -10.33786 -10.33447
 Alpha  occ. eigenvalues --  -10.33365 -10.29600 -10.29194 -10.28444 -10.28418
 Alpha  occ. eigenvalues --  -10.28133  -1.17039  -1.16842  -1.08812  -1.07671
 Alpha  occ. eigenvalues --   -0.95621  -0.89300  -0.86325  -0.85607  -0.85058
 Alpha  occ. eigenvalues --   -0.80550  -0.79336  -0.74201  -0.69659  -0.68726
 Alpha  occ. eigenvalues --   -0.65771  -0.63299  -0.62420  -0.60605  -0.58685
 Alpha  occ. eigenvalues --   -0.58415  -0.57380  -0.55881  -0.54309  -0.52399
 Alpha  occ. eigenvalues --   -0.51824  -0.51459  -0.51188  -0.50364  -0.49937
 Alpha  occ. eigenvalues --   -0.49228  -0.48615  -0.47430  -0.46127  -0.45826
 Alpha  occ. eigenvalues --   -0.44916  -0.43157  -0.41015  -0.40506  -0.38275
 Alpha  occ. eigenvalues --   -0.33353  -0.31198  -0.29917  -0.28011
 Alpha virt. eigenvalues --   -0.00721   0.03037   0.04291   0.04811   0.05689
 Alpha virt. eigenvalues --    0.05733   0.05993   0.06231   0.07508   0.07741
 Alpha virt. eigenvalues --    0.07819   0.08045   0.08342   0.08469   0.09093

 Mulliken charges:
               1
     1  C   -0.413905
     2  H    0.180453
     3  H    0.189101
     4  C   -0.353372
     5  H    0.187999
     6  N    0.134817
     7  H    0.175906
     8  H    0.155773
     9  H    0.159528
    10  C   -0.093010
    11  H    0.229550
    12  C   -0.191158
    13  C   -0.759482
    14  H    0.178842
    15  O   -0.333707
    16  C    1.874761
    17  C   -1.045943
    18  C   -0.346510
    19  O   -0.245241
    20  C   -0.499347
    21  C   -0.678145
    22  H    0.275774
    23  H    0.315017
    24  H    0.234077
    25  C    0.447882
    26  H    0.203628
    27  O   -0.134510
    28  C   -0.381115
    29  H    0.164297
    30  H    0.162865
    31  H    0.205175
 Sum of Mulliken charges =   0.00000

 Dipole moment (field-independent basis, Debye):
    X=             -3.5708    Y=              2.1624    Z=              2.3613  Tot=              4.7961
 Quadrupole moment (field-independent basis, Debye-Ang):
   XX=            -49.5182   YY=           -102.2892   ZZ=            -98.3802
   XY=              3.0593   XZ=             -1.5275   YZ=             -2.1943

 Normal termination of Gaussian 09 at Wed Aug 23 22:00:21 2017.
