 Gaussian 09, Revision D.01,
 Gaussian 09:  ES64L-G09RevD.01 24-Apr-2013

 ---------------------------------------------
 # wb97xd 6-311++g** opt td=(nstates=1,root=1)
 ---------------------------------------------

 -----------
 Geom Opt s1
 -----------
 Symbolic Z-matrix:
 Charge =  0 Multiplicity = 1

 SCF Done:  E(RwB97XD) =  -746.651699560     A.U. after   17 cycles
 SCF Done:  E(RwB97XD) =  -746.650965848     A.U. after   16 cycles
 SCF Done:  E(RwB97XD) =  -746.649789010     A.U. after   17 cycles
 SCF Done:  E(RwB97XD) =  -746.649140216     A.U. after   17 cycles
 SCF Done:  E(RwB97XD) =  -746.651506123     A.U. after   17 cycles
 SCF Done:  E(RwB97XD) =  -746.652606712     A.U. after   16 cycles
 SCF Done:  E(RwB97XD) =  -746.653438480     A.U. after   17 cycles
 SCF Done:  E(RwB97XD) =  -746.652806755     A.U. after   16 cycles
 SCF Done:  E(RwB97XD) =  -746.653122854     A.U. after   15 cycles
 SCF Done:  E(RwB97XD) =  -746.633754317     A.U. after   17 cycles
 SCF Done:  E(RwB97XD) =  -746.570619778     A.U. after   19 cycles
 SCF Done:  E(RwB97XD) =  -746.570715150     A.U. after   18 cycles
 SCF Done:  E(RwB97XD) =  -746.570802673     A.U. after   18 cycles
 SCF Done:  E(RwB97XD) =  -746.570925545     A.U. after   19 cycles
 SCF Done:  E(RwB97XD) =  -746.571133306     A.U. after   19 cycles
 SCF Done:  E(RwB97XD) =  -746.571405547     A.U. after   19 cycles
 SCF Done:  E(RwB97XD) =  -746.571762426     A.U. after   20 cycles
 SCF Done:  E(RwB97XD) =  -746.572064654     A.U. after   13 cycles
 SCF Done:  E(RwB97XD) =  -746.572161169     A.U. after   17 cycles
 SCF Done:  E(RwB97XD) =  -746.572140139     A.U. after   11 cycles

 Excitation energies and oscillator strengths:

 Excited State   1:      Singlet-A      0.1947 eV 6367.25 nm  f=0.0000  <S**2>=0.000
      59 -> 60         0.69232
 This state for optimization and/or second-order correction.
 Total Energy, E(TD-HF/TD-KS) =  -746.564984253
 Copying the excited state density for this state as the 1-particle RhoCI density.

 Optimization completed.
    -- Stationary point found.

                         Standard orientation:
 ---------------------------------------------------------------------
 Center     Atomic      Atomic             Coordinates (Angstroms)
 Number     Number       Type             X           Y           Z
 ---------------------------------------------------------------------
      1          6           0       -3.929014   -1.140436    1.599630
      2          1           0       -4.883942   -1.329587    2.092270
      3          1           0       -3.421567   -2.104826    1.437796
      4          6           0       -5.321699   -0.852538   -0.392279
      5          1           0       -5.201083   -1.863326   -0.811011
      6          7           0       -4.163785   -0.427573    0.367119
      7          1           0       -3.316104   -0.535827    2.271378
      8          1           0       -5.491317   -0.158667   -1.217401
      9          1           0       -6.207524   -0.843930    0.246974
     10          6           0       -3.080986    0.029845   -0.351926
     11          1           0       -3.326440    0.481644   -1.304899
     12          6           0       -1.766930    0.005245    0.056669
     13          6           0       -0.718659    0.551369   -0.666295
     14          1           0       -1.497199   -0.463350    0.995338
     15          8           0       -0.960323    1.068158   -1.911393
     16          6           0        0.696815    0.486992   -0.235179
     17          6           0        1.264784    1.641111    0.440141
     18          6           0        1.479289   -0.605334   -0.511342
     19          8           0        0.602639    2.683670    0.609407
     20          6           0        2.642354    1.536320    0.865325
     21          6           0        2.819302   -0.659359   -0.097304
     22          1           0        1.070848   -1.461757   -1.033881
     23          1           0       -0.408155    1.840382   -2.043232
     24          1           0        3.061224    2.383247    1.395944
     25          6           0        3.395035    0.426243    0.602243
     26          1           0        4.425763    0.386262    0.930350
     27          8           0        3.475755   -1.789651   -0.397238
     28          6           0        4.830601   -1.931232   -0.007079
     29          1           0        5.459038   -1.171255   -0.480995
     30          1           0        4.937496   -1.875567    1.080294
     31          1           0        5.135537   -2.917199   -0.350588
 ---------------------------------------------------------------------

 The electronic state is 1-A.
 Alpha  occ. eigenvalues --  -19.32336 -19.24075 -19.12246 -14.54458 -10.43364
 Alpha  occ. eigenvalues --  -10.41259 -10.37079 -10.36438 -10.32761 -10.31370
 Alpha  occ. eigenvalues --  -10.29643 -10.29238 -10.25992 -10.25561 -10.25167
 Alpha  occ. eigenvalues --  -10.22923  -1.20897  -1.14268  -1.13085  -1.04129
 Alpha  occ. eigenvalues --   -0.95428  -0.90985  -0.88491  -0.86901  -0.82434
 Alpha  occ. eigenvalues --   -0.81188  -0.76206  -0.73454  -0.71597  -0.69278
 Alpha  occ. eigenvalues --   -0.65793  -0.65192  -0.63651  -0.62037  -0.60565
 Alpha  occ. eigenvalues --   -0.58522  -0.57432  -0.54792  -0.54305  -0.54207
 Alpha  occ. eigenvalues --   -0.53634  -0.53467  -0.52474  -0.51038  -0.50106
 Alpha  occ. eigenvalues --   -0.47816  -0.47523  -0.46870  -0.45934  -0.44294
 Alpha  occ. eigenvalues --   -0.42292  -0.41345  -0.40187  -0.37766  -0.36285
 Alpha  occ. eigenvalues --   -0.32928  -0.30693  -0.25974  -0.19622
 Alpha virt. eigenvalues --   -0.06051   0.01469   0.03451   0.04202   0.04734
 Alpha virt. eigenvalues --    0.05504   0.06249   0.06797   0.06851   0.07103
 Alpha virt. eigenvalues --    0.07530   0.08039   0.08433   0.08940   0.09075

 Mulliken charges:
               1
     1  C   -0.468183
     2  H    0.190992
     3  H    0.216085
     4  C   -0.359648
     5  H    0.203018
     6  N    0.157306
     7  H    0.204252
     8  H    0.163557
     9  H    0.175033
    10  C   -0.123816
    11  H    0.254997
    12  C   -0.524392
    13  C   -0.387807
    14  H    0.236442
    15  O   -0.158023
    16  C    1.120815
    17  C   -0.391030
    18  C   -0.576764
    19  O   -0.468500
    20  C   -0.294742
    21  C   -0.628595
    22  H    0.206759
    23  H    0.357836
    24  H    0.212410
    25  C    0.496741
    26  H    0.178154
    27  O   -0.145855
    28  C   -0.348915
    29  H    0.159248
    30  H    0.153871
    31  H    0.188753
 Sum of Mulliken charges =   0.00000

 Dipole moment (field-independent basis, Debye):
    X=            -10.4054    Y=             -6.0477    Z=             -1.1709  Tot=             12.0920
 Quadrupole moment (field-independent basis, Debye-Ang):
   XX=            -48.6698   YY=           -110.3928   ZZ=            -92.5797
   XY=              4.6254   XZ=              0.1988   YZ=            -10.3186

 Normal termination of Gaussian 09 at Thu Jul 20 17:36:54 2017.
