 Gaussian 09, Revision D.01,
 Gaussian 09:  ES64L-G09RevD.01 24-Apr-2013

 ---------------------------------------------
 # wb97xd 6-311++g** opt td=(nstates=1,root=1)
 ---------------------------------------------

 ----------------------
 restarted optimization
 ----------------------
 Symbolic Z-matrix:
 Charge =  0 Multiplicity = 1

 SCF Done:  E(RwB97XD) =  -746.615830001     A.U. after   18 cycles
 SCF Done:  E(RwB97XD) =  -746.621347245     A.U. after   17 cycles
 SCF Done:  E(RwB97XD) =  -746.621974846     A.U. after   16 cycles
 SCF Done:  E(RwB97XD) =  -746.622148830     A.U. after   15 cycles
 SCF Done:  E(RwB97XD) =  -746.622300806     A.U. after   15 cycles
 SCF Done:  E(RwB97XD) =  -746.622416348     A.U. after   15 cycles
 SCF Done:  E(RwB97XD) =  -746.622435803     A.U. after   15 cycles
 SCF Done:  E(RwB97XD) =  -746.622478938     A.U. after   14 cycles
 SCF Done:  E(RwB97XD) =  -746.622403947     A.U. after   13 cycles
 SCF Done:  E(RwB97XD) =  -746.622385921     A.U. after   13 cycles
 SCF Done:  E(RwB97XD) =  -746.622366762     A.U. after   13 cycles
 SCF Done:  E(RwB97XD) =  -746.622365953     A.U. after   13 cycles
 SCF Done:  E(RwB97XD) =  -746.622370742     A.U. after   11 cycles

 Excitation energies and oscillator strengths:

 Excited State   1:      Singlet-A      2.2724 eV  545.61 nm  f=0.0001  <S**2>=0.000
      57 -> 60        -0.13186
      59 -> 60        -0.66086
      59 -> 78        -0.10957
 This state for optimization and/or second-order correction.
 Total Energy, E(TD-HF/TD-KS) =  -746.538861472
 Copying the excited state density for this state as the 1-particle RhoCI density.

 Optimization completed.
    -- Stationary point found.

                         Standard orientation:
 ---------------------------------------------------------------------
 Center     Atomic      Atomic             Coordinates (Angstroms)
 Number     Number       Type             X           Y           Z
 ---------------------------------------------------------------------
      1          6           0        4.326082   -1.012380   -1.111121
      2          1           0        5.297529   -1.490794   -1.000784
      3          1           0        3.665996   -1.677377   -1.673003
      4          6           0        4.536959   -1.217711    1.358717
      5          1           0        4.651074   -2.303372    1.308679
      6          7           0        3.780764   -0.741447    0.211926
      7          1           0        4.451277   -0.079808   -1.665479
      8          1           0        4.015157   -0.958674    2.278180
      9          1           0        5.527578   -0.756405    1.369558
     10          6           0        2.632304   -0.090191    0.364181
     11          1           0        2.322384    0.089642    1.387470
     12          6           0        1.806094    0.354691   -0.655775
     13          6           0        0.645333    1.183458   -0.328484
     14          1           0        2.121799    0.266664   -1.693830
     15          8           0        1.143773    2.382886   -0.277096
     16          6           0       -0.695786    0.775632   -0.156212
     17          6           0       -1.706643    1.736466    0.142771
     18          6           0       -1.076459   -0.577777   -0.254851
     19          8           0       -1.412679    3.058431    0.247746
     20          6           0       -3.006272    1.323389    0.331209
     21          6           0       -2.393075   -0.973525   -0.059630
     22          1           0       -0.341582   -1.338783   -0.491193
     23          1           0       -0.461616    3.175723    0.083808
     24          1           0       -3.755424    2.073070    0.558112
     25          6           0       -3.369034   -0.027310    0.236131
     26          1           0       -4.402542   -0.304557    0.391611
     27          8           0       -2.629816   -2.317702   -0.180473
     28          6           0       -3.948559   -2.769398    0.000832
     29          1           0       -4.318925   -2.544864    1.008670
     30          1           0       -4.632287   -2.331265   -0.736568
     31          1           0       -3.921647   -3.850049   -0.136726
 ---------------------------------------------------------------------

 The electronic state is 1-A.
 Alpha  occ. eigenvalues --  -19.28429 -19.26484 -19.23169 -14.45687 -10.37871
 Alpha  occ. eigenvalues --  -10.36275 -10.35528 -10.34311 -10.32246 -10.31962
 Alpha  occ. eigenvalues --  -10.31838 -10.31181 -10.30961 -10.30599 -10.29585
 Alpha  occ. eigenvalues --  -10.26120  -1.18006  -1.16141  -1.11014  -1.06291
 Alpha  occ. eigenvalues --   -0.97209  -0.89009  -0.86778  -0.86067  -0.83291
 Alpha  occ. eigenvalues --   -0.80323  -0.78685  -0.75447  -0.70628  -0.68184
 Alpha  occ. eigenvalues --   -0.65399  -0.63012  -0.61850  -0.59932  -0.59473
 Alpha  occ. eigenvalues --   -0.57672  -0.56875  -0.56477  -0.54252  -0.53219
 Alpha  occ. eigenvalues --   -0.52920  -0.51640  -0.50613  -0.50129  -0.50118
 Alpha  occ. eigenvalues --   -0.48924  -0.48003  -0.47803  -0.46974  -0.45746
 Alpha  occ. eigenvalues --   -0.44681  -0.43027  -0.42513  -0.40331  -0.39173
 Alpha  occ. eigenvalues --   -0.34698  -0.34538  -0.29023  -0.25344
 Alpha virt. eigenvalues --   -0.01530   0.03461   0.03810   0.05146   0.05375
 Alpha virt. eigenvalues --    0.05915   0.06166   0.06522   0.07203   0.07339
 Alpha virt. eigenvalues --    0.07981   0.08285   0.08401   0.09326   0.09384

 Mulliken charges:
               1
     1  C   -0.435979
     2  H    0.181737
     3  H    0.174668
     4  C   -0.319783
     5  H    0.164052
     6  N    0.186776
     7  H    0.188276
     8  H    0.134976
     9  H    0.172464
    10  C   -0.679325
    11  H    0.153695
    12  C   -0.219544
    13  C    0.268772
    14  H    0.222454
    15  O   -0.232866
    16  C    1.130671
    17  C   -0.509429
    18  C   -1.176030
    19  O   -0.251584
    20  C   -0.143957
    21  C   -0.521426
    22  H    0.275068
    23  H    0.306353
    24  H    0.247851
    25  C    0.439831
    26  H    0.211270
    27  O   -0.135693
    28  C   -0.367720
    29  H    0.163022
    30  H    0.165265
    31  H    0.206133
 Sum of Mulliken charges =   0.00000

 Dipole moment (field-independent basis, Debye):
    X=              0.1697    Y=             -4.8226    Z=              0.7482  Tot=              4.8832
 Quadrupole moment (field-independent basis, Debye-Ang):
   XX=            -65.8656   YY=           -104.7750   ZZ=            -93.2922
   XY=             -1.3558   XZ=              0.1895   YZ=             -0.4002

 Normal termination of Gaussian 09 at Wed Aug 23 21:10:27 2017.
