 Gaussian 09, Revision D.01,
 Gaussian 09:  ES64L-G09RevD.01 24-Apr-2013

 ------------------------------------------
 #p wb97xd 6-311++G** td=(nstates=4) nosymm
 ------------------------------------------

 -----
 Title
 -----
 Symbolic Z-matrix:
 Charge =  0 Multiplicity = 1

                          Input orientation:
 ---------------------------------------------------------------------
 Center     Atomic      Atomic             Coordinates (Angstroms)
 Number     Number       Type             X           Y           Z
 ---------------------------------------------------------------------
      1          6           0       -0.549514   -2.421375   -3.556489
      2          6           0        0.748952   -2.084530   -4.185680
      3          6           0       -1.435128   -3.316549   -4.234244
      4          6           0       -0.970489   -1.888841   -2.320671
      5          8           0        0.972908   -2.549156   -5.370477
      6          6           0        1.712641   -1.292266   -3.496460
      7          6           0       -2.678296   -3.642643   -3.669457
      8          8           0       -1.094483   -3.862251   -5.419024
      9          6           0       -2.205884   -2.208878   -1.773965
     10          1           0       -0.320388   -1.208760   -1.775770
     11          1           0       -0.169942   -3.394053   -5.620683
     12          6           0        2.901163   -0.936609   -4.107270
     13          1           0        1.505636   -0.972217   -2.480867
     14          6           0       -3.058648   -3.089708   -2.454186
     15          1           0       -3.318449   -4.339669   -4.212269
     16          1           0       -2.515509   -1.774510   -0.823695
     17          1           0        3.057591   -1.228212   -5.147628
     18          7           0        3.911606   -0.259407   -3.559222
     19          1           0       -4.027919   -3.334554   -2.016044
     20          6           0        3.893413    0.167594   -2.168239
     21          6           0        5.095997    0.094821   -4.328347
     22          1           0        3.501736   -0.633692   -1.532362
     23          1           0        4.916749    0.396317   -1.851515
     24          1           0        3.278691    1.072565   -2.042548
     25          1           0        4.984634   -0.264548   -5.357440
     26          1           0        5.983314   -0.369690   -3.870035
     27          1           0        5.226221    1.187487   -4.339873
 ---------------------------------------------------------------------

 SCF Done:  E(RwB97XD) =  -632.145538062     A.U. after   18 cycles

 Excitation energies and oscillator strengths:

 Excited state symmetry could not be determined.
 Excited State   1:      Singlet-?Sym    3.8715 eV  320.25 nm  f=0.4606  <S**2>=0.000
      51 -> 52         0.67804
 This state for optimization and/or second-order correction.
 Total Energy, E(TD-HF/TD-KS) =  -632.003263508
 Copying the excited state density for this state as the 1-particle RhoCI density.

 Excited state symmetry could not be determined.
 Excited State   2:      Singlet-?Sym    4.1462 eV  299.03 nm  f=0.0042  <S**2>=0.000
      48 -> 52         0.66596
      49 -> 52         0.13556

 Excited state symmetry could not be determined.
 Excited State   3:      Singlet-?Sym    4.4598 eV  278.00 nm  f=0.2979  <S**2>=0.000
      50 -> 52         0.67729

 Excited state symmetry could not be determined.
 Excited State   4:      Singlet-?Sym    5.1866 eV  239.05 nm  f=0.0381  <S**2>=0.000
      48 -> 52        -0.11556
      49 -> 52         0.56695
      50 -> 58         0.13438
      51 -> 57        -0.10167
      51 -> 58        -0.23280
      51 -> 62        -0.13759

 Alpha  occ. eigenvalues --  -19.23402 -19.22408 -14.50209 -10.37662 -10.35912
 Alpha  occ. eigenvalues --  -10.34881 -10.34777 -10.34587 -10.29623 -10.29324
 Alpha  occ. eigenvalues --  -10.29180 -10.28089 -10.27986 -10.27704  -1.14078
 Alpha  occ. eigenvalues --   -1.10243  -1.09617  -0.95049  -0.89897  -0.86135
 Alpha  occ. eigenvalues --   -0.85807  -0.83104  -0.80820  -0.73400  -0.70020
 Alpha  occ. eigenvalues --   -0.68166  -0.65497  -0.63094  -0.59437  -0.59320
 Alpha  occ. eigenvalues --   -0.58975  -0.58297  -0.55006  -0.53100  -0.52366
 Alpha  occ. eigenvalues --   -0.51926  -0.51176  -0.50698  -0.50374  -0.50093
 Alpha  occ. eigenvalues --   -0.46970  -0.46372  -0.45856  -0.44850  -0.42270
 Alpha  occ. eigenvalues --   -0.41757  -0.41265  -0.33584  -0.33281  -0.30323
 Alpha  occ. eigenvalues --   -0.28279
 Alpha virt. eigenvalues --   -0.00439   0.02392   0.03999   0.04912   0.05360
 Alpha virt. eigenvalues --    0.05854   0.05969   0.06547   0.07545   0.07742
 Alpha virt. eigenvalues --    0.08099   0.08224   0.08283   0.09957   0.10248

 Mulliken charges:
               1
     1  C    1.945948
     2  C   -0.834463
     3  C    0.242705
     4  C   -1.312010
     5  O   -0.365923
     6  C   -0.061832
     7  C   -0.549853
     8  O   -0.363215
     9  C   -0.663576
    10  H    0.086126
    11  H    0.417361
    12  C    0.294047
    13  H    0.091371
    14  C   -0.299346
    15  H    0.231333
    16  H    0.217579
    17  H    0.233343
    18  N    0.143283
    19  H    0.203392
    20  C   -0.444878
    21  C   -0.307829
    22  H    0.181643
    23  H    0.187085
    24  H    0.211394
    25  H    0.147639
    26  H    0.185514
    27  H    0.183162
 Sum of Mulliken charges =   0.00000

 Dipole moment (field-independent basis, Debye):
    X=              5.6759    Y=              4.7509    Z=              3.6307  Tot=              8.2444
 Quadrupole moment (field-independent basis, Debye-Ang):
   XX=            -52.6608   YY=           -101.5651   ZZ=           -111.5053
   XY=              3.4606   XZ=            -22.6543   YZ=            -25.7309

 Normal termination of Gaussian 09 at Thu Nov  2 22:03:27 2017.
