 Gaussian 09, Revision D.01,
 Gaussian 09:  ES64L-G09RevD.01 24-Apr-2013

 ------------------------------------------
 #p wb97xd 6-311++G** td=(nstates=4) nosymm
 ------------------------------------------

 -----
 Title
 -----
 Symbolic Z-matrix:
 Charge =  0 Multiplicity = 1

                          Input orientation:
 ---------------------------------------------------------------------
 Center     Atomic      Atomic             Coordinates (Angstroms)
 Number     Number       Type             X           Y           Z
 ---------------------------------------------------------------------
      1          1           0       -0.791034   -0.921731    1.173810
      2          6           0       -0.146972   -1.618434    1.712336
      3          6           0        1.098278   -1.936428    1.143649
      4          6           0       -0.523906   -2.182823    2.923469
      5          8           0        1.434889   -1.393630   -0.045323
      6          6           0        1.995124   -2.827091    1.813118
      7          1           0       -1.492388   -1.946456    3.369065
      8          6           0        0.340481   -3.061877    3.592445
      9          1           0        2.355241   -1.860939   -0.253101
     10          6           0        3.295988   -3.159996    1.179567
     11          6           0        1.579305   -3.368570    3.044342
     12          1           0        0.037115   -3.506837    4.540067
     13          8           0        3.517018   -2.697268   -0.004446
     14          6           0        4.263794   -3.952165    1.863930
     15          1           0        2.234555   -4.043778    3.588784
     16          6           0        5.452322   -4.304311    1.250017
     17          1           0        4.059152   -4.275670    2.879200
     18          1           0        5.609526   -4.005951    0.211815
     19          7           0        6.461148   -4.988045    1.791767
     20          6           0        6.445990   -5.428917    3.178332
     21          6           0        7.644597   -5.337196    1.020785
     22          1           0        6.051029   -4.635644    3.823351
     23          1           0        7.470833   -5.656679    3.491160
     24          1           0        5.835919   -6.338185    3.297179
     25          1           0        7.532271   -4.977862   -0.007957
     26          1           0        7.778647   -6.429610    1.009865
     27          1           0        8.530492   -4.871202    1.480377
 ---------------------------------------------------------------------

 SCF Done:  E(RwB97XD) =  -632.145595928     A.U. after   18 cycles

 Excitation energies and oscillator strengths:

 Excited state symmetry could not be determined.
 Excited State   1:      Singlet-?Sym    3.8775 eV  319.75 nm  f=0.4596  <S**2>=0.000
      51 -> 52         0.67838
 This state for optimization and/or second-order correction.
 Total Energy, E(TD-HF/TD-KS) =  -632.003100811
 Copying the excited state density for this state as the 1-particle RhoCI density.

 Excited state symmetry could not be determined.
 Excited State   2:      Singlet-?Sym    4.1490 eV  298.83 nm  f=0.0025  <S**2>=0.000
      48 -> 52         0.67038
      49 -> 52         0.11287

 Excited state symmetry could not be determined.
 Excited State   3:      Singlet-?Sym    4.4593 eV  278.03 nm  f=0.2987  <S**2>=0.000
      50 -> 52         0.67670

 Excited state symmetry could not be determined.
 Excited State   4:      Singlet-?Sym    5.1928 eV  238.76 nm  f=0.0354  <S**2>=0.000
      49 -> 52         0.56300
      50 -> 58         0.13542
      51 -> 57        -0.10762
      51 -> 58        -0.24061
      51 -> 62        -0.14746

 Alpha  occ. eigenvalues --  -19.23445 -19.22396 -14.50205 -10.37674 -10.35914
 Alpha  occ. eigenvalues --  -10.34869 -10.34828 -10.34597 -10.29595 -10.29359
 Alpha  occ. eigenvalues --  -10.29203 -10.28082 -10.27984 -10.27764  -1.14067
 Alpha  occ. eigenvalues --   -1.10295  -1.09651  -0.95047  -0.89882  -0.86156
 Alpha  occ. eigenvalues --   -0.85794  -0.83059  -0.80827  -0.73387  -0.70014
 Alpha  occ. eigenvalues --   -0.68172  -0.65480  -0.63094  -0.59465  -0.59326
 Alpha  occ. eigenvalues --   -0.58980  -0.58288  -0.55006  -0.53116  -0.52335
 Alpha  occ. eigenvalues --   -0.51936  -0.51213  -0.50690  -0.50381  -0.50088
 Alpha  occ. eigenvalues --   -0.46935  -0.46370  -0.45879  -0.44887  -0.42276
 Alpha  occ. eigenvalues --   -0.41733  -0.41258  -0.33601  -0.33313  -0.30296
 Alpha  occ. eigenvalues --   -0.28276
 Alpha virt. eigenvalues --   -0.00414   0.02393   0.04001   0.04914   0.05360
 Alpha virt. eigenvalues --    0.05849   0.05964   0.06547   0.07546   0.07734
 Alpha virt. eigenvalues --    0.08085   0.08224   0.08278   0.09962   0.10248

 Mulliken charges:
               1
     1  H    0.231590
     2  C   -0.536575
     3  C    0.221416
     4  C   -0.298762
     5  O   -0.361235
     6  C    1.972474
     7  H    0.203983
     8  C   -0.675001
     9  H    0.415345
    10  C   -0.845367
    11  C   -1.294989
    12  H    0.217210
    13  O   -0.363702
    14  C   -0.079358
    15  H    0.085901
    16  C    0.296694
    17  H    0.089679
    18  H    0.233313
    19  N    0.145511
    20  C   -0.445464
    21  C   -0.309269
    22  H    0.181281
    23  H    0.186777
    24  H    0.212113
    25  H    0.147555
    26  H    0.182776
    27  H    0.186102
 Sum of Mulliken charges =   0.00000

 Dipole moment (field-independent basis, Debye):
    X=              5.6806    Y=             -4.7519    Z=              3.5966  Tot=              8.2332
 Quadrupole moment (field-independent basis, Debye-Ang):
   XX=            -23.6715   YY=            -51.6683   ZZ=            -72.6758
   XY=            -45.3694   XZ=             16.8387   YZ=            -18.7101

 Normal termination of Gaussian 09 at Thu Nov  2 22:06:04 2017.
