 Gaussian 09, Revision D.01,
 Gaussian 09:  ES64L-G09RevD.01 24-Apr-2013

 ------------------------------------------
 #p wb97xd 6-311++G** td=(nstates=4) nosymm
 ------------------------------------------

 -----
 Title
 -----
 Symbolic Z-matrix:
 Charge =  0 Multiplicity = 1

                          Input orientation:
 ---------------------------------------------------------------------
 Center     Atomic      Atomic             Coordinates (Angstroms)
 Number     Number       Type             X           Y           Z
 ---------------------------------------------------------------------
      1          6           0       -0.549514   -2.421375   -3.556489
      2          6           0        0.748952   -2.084530   -4.185680
      3          6           0       -1.435128   -3.316549   -4.234244
      4          6           0       -0.970489   -1.888841   -2.320671
      5          8           0        0.972908   -2.549156   -5.370477
      6          6           0        1.712641   -1.292266   -3.496460
      7          6           0       -2.678296   -3.642643   -3.669457
      8          8           0       -1.094483   -3.862251   -5.419024
      9          6           0       -2.205884   -2.208878   -1.773965
     10          1           0       -0.320388   -1.208760   -1.775770
     11          1           0       -0.169942   -3.394053   -5.620683
     12          6           0        2.901163   -0.936609   -4.107270
     13          1           0        1.505636   -0.972217   -2.480867
     14          6           0       -3.058648   -3.089708   -2.454186
     15          1           0       -3.318449   -4.339669   -4.212269
     16          1           0       -2.515509   -1.774510   -0.823695
     17          1           0        3.057591   -1.228212   -5.147628
     18          7           0        3.911606   -0.259407   -3.559222
     19          1           0       -4.027919   -3.334554   -2.016044
     20          6           0        3.893413    0.167594   -2.168239
     21          6           0        5.095997    0.094821   -4.328347
     22          1           0        3.501736   -0.633692   -1.532362
     23          1           0        4.916749    0.396317   -1.851515
     24          1           0        3.278691    1.072565   -2.042548
     25          1           0        4.984634   -0.264548   -5.357440
     26          1           0        5.983314   -0.369690   -3.870035
     27          1           0        5.226221    1.187487   -4.339873
     28          6           0       -0.018523   -0.167594   -8.624227
     29          1           0       -1.041859   -0.396318   -8.940951
     30          1           0        0.596200   -1.072565   -8.749918
     31          1           0        0.373154    0.633692   -9.260104
     32          7           0       -0.036716    0.259407   -7.233244
     33          6           0       -1.221106   -0.094821   -6.464118
     34          6           0        0.973728    0.936608   -6.685196
     35          1           0       -1.351330   -1.187488   -6.452592
     36          1           0       -1.109743    0.264547   -5.435025
     37          1           0       -2.108423    0.369690   -6.922430
     38          6           0        2.162250    1.292265   -7.296006
     39          1           0        0.817300    1.228212   -5.644838
     40          1           0        2.369255    0.972216   -8.311599
     41          6           0        3.125938    2.084530   -6.606786
     42          6           0        4.424405    2.421374   -7.235977
     43          8           0        2.901988    2.549157   -5.421988
     44          6           0        5.310019    3.316548   -6.558221
     45          6           0        4.845380    1.888840   -8.471795
     46          1           0        4.044833    3.394053   -5.171782
     47          6           0        6.553187    3.642642   -7.123008
     48          8           0        4.969374    3.862250   -5.373442
     49          6           0        6.080774    2.208877   -9.018501
     50          1           0        4.195278    1.208760   -9.016695
     51          6           0        6.933539    3.089708   -8.338279
     52          1           0        7.193340    4.339668   -6.580197
     53          1           0        6.390400    1.774510   -9.968770
     54          1           0        7.902810    3.334553   -8.776421
 ---------------------------------------------------------------------

 SCF Done:  E(RwB97XD) =  -1264.31594839     A.U. after   18 cycles

 Excitation energies and oscillator strengths:

 Excited state symmetry could not be determined.
 Excited State   1:      Singlet-?Sym    3.8372 eV  323.11 nm  f=0.0000  <S**2>=0.000
     101 ->103         0.49059
     102 ->104         0.47805
 This state for optimization and/or second-order correction.
 Total Energy, E(TD-HF/TD-KS) =  -1264.17493406
 Copying the excited state density for this state as the 1-particle RhoCI density.

 Excited state symmetry could not be determined.
 Excited State   2:      Singlet-?Sym    3.9329 eV  315.25 nm  f=0.9407  <S**2>=0.000
      99 ->104        -0.10141
     101 ->104         0.45149
     102 ->103         0.48548

 Excited state symmetry could not be determined.
 Excited State   3:      Singlet-?Sym    4.2424 eV  292.25 nm  f=0.0000  <S**2>=0.000
      95 ->103        -0.46175
      96 ->104         0.46677
      97 ->103         0.16620

 Excited state symmetry could not be determined.
 Excited State   4:      Singlet-?Sym    4.2425 eV  292.24 nm  f=0.0092  <S**2>=0.000
      95 ->104        -0.44272
      96 ->103         0.48124
      97 ->104         0.16198

 Alpha  occ. eigenvalues --  -19.24427 -19.24427 -19.22900 -19.22900 -14.49694
 Alpha  occ. eigenvalues --  -14.49694 -10.38048 -10.38048 -10.35673 -10.35673
 Alpha  occ. eigenvalues --  -10.35586 -10.35586 -10.33622 -10.33621 -10.33241
 Alpha  occ. eigenvalues --  -10.33241 -10.30283 -10.30283 -10.30050 -10.30050
 Alpha  occ. eigenvalues --  -10.29942 -10.29941 -10.28706 -10.28706 -10.28530
 Alpha  occ. eigenvalues --  -10.28530 -10.27973 -10.27973  -1.14963  -1.14958
 Alpha  occ. eigenvalues --   -1.10911  -1.10879  -1.08915  -1.08892  -0.95794
 Alpha  occ. eigenvalues --   -0.95793  -0.89748  -0.89651  -0.86595  -0.86521
 Alpha  occ. eigenvalues --   -0.84724  -0.84711  -0.83837  -0.83827  -0.80496
 Alpha  occ. eigenvalues --   -0.80406  -0.73861  -0.73804  -0.70254  -0.70175
 Alpha  occ. eigenvalues --   -0.68637  -0.68595  -0.65380  -0.65280  -0.62815
 Alpha  occ. eigenvalues --   -0.62675  -0.59969  -0.59929  -0.59376  -0.59360
 Alpha  occ. eigenvalues --   -0.58401  -0.58250  -0.58051  -0.58046  -0.55595
 Alpha  occ. eigenvalues --   -0.55573  -0.53103  -0.52983  -0.52180  -0.52089
 Alpha  occ. eigenvalues --   -0.51963  -0.51721  -0.51274  -0.51256  -0.50708
 Alpha  occ. eigenvalues --   -0.50620  -0.50385  -0.50201  -0.48910  -0.48890
 Alpha  occ. eigenvalues --   -0.47401  -0.47139  -0.46796  -0.46738  -0.46509
 Alpha  occ. eigenvalues --   -0.46292  -0.45581  -0.45578  -0.42550  -0.42525
 Alpha  occ. eigenvalues --   -0.42288  -0.42179  -0.41683  -0.41604  -0.34233
 Alpha  occ. eigenvalues --   -0.34216  -0.34065  -0.34008  -0.30579  -0.30526
 Alpha  occ. eigenvalues --   -0.28759  -0.28720
 Alpha virt. eigenvalues --   -0.00888  -0.00672   0.03230   0.03661   0.04057
 Alpha virt. eigenvalues --    0.04653   0.04962   0.05346   0.05364   0.05474
 Alpha virt. eigenvalues --    0.06288   0.06297   0.06492   0.06785   0.07417

 Mulliken charges:
               1
     1  C    1.479390
     2  C   -0.479090
     3  C    0.252287
     4  C   -0.855162
     5  O   -0.332263
     6  C   -0.718080
     7  C   -0.387042
     8  O   -0.291936
     9  C   -0.644226
    10  H    0.121823
    11  H    0.383895
    12  C    0.198281
    13  H    0.145685
    14  C   -0.400050
    15  H    0.240315
    16  H    0.224727
    17  H    0.233412
    18  N    0.317122
    19  H    0.209669
    20  C   -0.460506
    21  C   -0.348464
    22  H    0.172645
    23  H    0.190399
    24  H    0.230170
    25  H    0.136378
    26  H    0.202332
    27  H    0.178291
    28  C   -0.460506
    29  H    0.190399
    30  H    0.230170
    31  H    0.172645
    32  N    0.317122
    33  C   -0.348465
    34  C    0.198284
    35  H    0.178291
    36  H    0.136378
    37  H    0.202332
    38  C   -0.718078
    39  H    0.233412
    40  H    0.145686
    41  C   -0.479091
    42  C    1.479387
    43  O   -0.332264
    44  C    0.252292
    45  C   -0.855165
    46  H    0.383896
    47  C   -0.387042
    48  O   -0.291938
    49  C   -0.644228
    50  H    0.121822
    51  C   -0.400049
    52  H    0.240315
    53  H    0.224726
    54  H    0.209669
 Sum of Mulliken charges =   0.00000

 Dipole moment (field-independent basis, Debye):
    X=              0.0000    Y=              0.0000    Z=              0.0000  Tot=              0.0000
 Quadrupole moment (field-independent basis, Debye-Ang):
   XX=           -149.7069   YY=           -203.9436   ZZ=           -142.4909
   XY=            -12.0631   XZ=              2.3713   YZ=             -0.3193

 Normal termination of Gaussian 09 at Fri Nov  3 00:16:20 2017.
