 Gaussian 09, Revision D.01,
 Gaussian 09:  ES64L-G09RevD.01 24-Apr-2013

 ------------------------------------------
 #p wb97xd 6-311++G** td=(nstates=4) nosymm
 ------------------------------------------

 -----
 Title
 -----
 Symbolic Z-matrix:
 Charge =  0 Multiplicity = 1

                          Input orientation:
 ---------------------------------------------------------------------
 Center     Atomic      Atomic             Coordinates (Angstroms)
 Number     Number       Type             X           Y           Z
 ---------------------------------------------------------------------
      1          6           0       -0.018523   -0.167594   -8.624227
      2          1           0       -1.041859   -0.396318   -8.940951
      3          1           0        0.596200   -1.072565   -8.749918
      4          1           0        0.373154    0.633692   -9.260104
      5          7           0       -0.036716    0.259407   -7.233244
      6          6           0       -1.221106   -0.094821   -6.464118
      7          6           0        0.973728    0.936608   -6.685196
      8          1           0       -1.351330   -1.187488   -6.452592
      9          1           0       -1.109743    0.264547   -5.435025
     10          1           0       -2.108423    0.369690   -6.922430
     11          6           0        2.162250    1.292265   -7.296006
     12          1           0        0.817300    1.228212   -5.644838
     13          1           0        2.369255    0.972216   -8.311599
     14          6           0        3.125938    2.084530   -6.606786
     15          6           0        4.424405    2.421374   -7.235977
     16          8           0        2.901988    2.549157   -5.421988
     17          6           0        5.310019    3.316548   -6.558221
     18          6           0        4.845380    1.888840   -8.471795
     19          1           0        4.044833    3.394053   -5.171782
     20          6           0        6.553187    3.642642   -7.123008
     21          8           0        4.969374    3.862250   -5.373442
     22          6           0        6.080774    2.208877   -9.018501
     23          1           0        4.195278    1.208760   -9.016695
     24          6           0        6.933539    3.089708   -8.338279
     25          1           0        7.193340    4.339668   -6.580197
     26          1           0        6.390400    1.774510   -9.968770
     27          1           0        7.902810    3.334553   -8.776421
 ---------------------------------------------------------------------

 SCF Done:  E(RwB97XD) =  -632.145538025     A.U. after   18 cycles

 Excitation energies and oscillator strengths:

 Excited state symmetry could not be determined.
 Excited State   1:      Singlet-?Sym    3.8715 eV  320.25 nm  f=0.4606  <S**2>=0.000
      51 -> 52         0.67804
 This state for optimization and/or second-order correction.
 Total Energy, E(TD-HF/TD-KS) =  -632.003263566
 Copying the excited state density for this state as the 1-particle RhoCI density.

 Excited state symmetry could not be determined.
 Excited State   2:      Singlet-?Sym    4.1462 eV  299.03 nm  f=0.0042  <S**2>=0.000
      48 -> 52         0.66596
      49 -> 52         0.13557

 Excited state symmetry could not be determined.
 Excited State   3:      Singlet-?Sym    4.4598 eV  278.00 nm  f=0.2979  <S**2>=0.000
      50 -> 52         0.67729

 Excited state symmetry could not be determined.
 Excited State   4:      Singlet-?Sym    5.1866 eV  239.05 nm  f=0.0381  <S**2>=0.000
      48 -> 52        -0.11557
      49 -> 52         0.56694
      50 -> 58         0.13438
      51 -> 57        -0.10166
      51 -> 58        -0.23281
      51 -> 62        -0.13759

 Alpha  occ. eigenvalues --  -19.23402 -19.22408 -14.50209 -10.37662 -10.35912
 Alpha  occ. eigenvalues --  -10.34881 -10.34777 -10.34587 -10.29623 -10.29324
 Alpha  occ. eigenvalues --  -10.29180 -10.28089 -10.27986 -10.27704  -1.14078
 Alpha  occ. eigenvalues --   -1.10243  -1.09617  -0.95049  -0.89897  -0.86135
 Alpha  occ. eigenvalues --   -0.85807  -0.83104  -0.80820  -0.73400  -0.70020
 Alpha  occ. eigenvalues --   -0.68166  -0.65497  -0.63094  -0.59437  -0.59320
 Alpha  occ. eigenvalues --   -0.58975  -0.58297  -0.55006  -0.53100  -0.52366
 Alpha  occ. eigenvalues --   -0.51926  -0.51176  -0.50698  -0.50374  -0.50093
 Alpha  occ. eigenvalues --   -0.46970  -0.46372  -0.45856  -0.44850  -0.42270
 Alpha  occ. eigenvalues --   -0.41757  -0.41265  -0.33584  -0.33281  -0.30323
 Alpha  occ. eigenvalues --   -0.28279
 Alpha virt. eigenvalues --   -0.00439   0.02392   0.03999   0.04912   0.05360
 Alpha virt. eigenvalues --    0.05854   0.05969   0.06547   0.07545   0.07742
 Alpha virt. eigenvalues --    0.08099   0.08224   0.08283   0.09957   0.10248

 Mulliken charges:
               1
     1  C   -0.444879
     2  H    0.187085
     3  H    0.211394
     4  H    0.181643
     5  N    0.143283
     6  C   -0.307829
     7  C    0.294049
     8  H    0.183162
     9  H    0.147639
    10  H    0.185514
    11  C   -0.061835
    12  H    0.233343
    13  H    0.091371
    14  C   -0.834456
    15  C    1.945945
    16  O   -0.365924
    17  C    0.242711
    18  C   -1.312018
    19  H    0.417362
    20  C   -0.549855
    21  O   -0.363215
    22  C   -0.663574
    23  H    0.086125
    24  C   -0.299348
    25  H    0.231333
    26  H    0.217579
    27  H    0.203392
 Sum of Mulliken charges =   0.00000

 Dipole moment (field-independent basis, Debye):
    X=             -5.6760    Y=             -4.7509    Z=             -3.6307  Tot=              8.2444
 Quadrupole moment (field-independent basis, Debye-Ang):
   XX=            -96.6482   YY=           -101.5651   ZZ=            -33.1362
   XY=            -14.9487   XZ=             24.5345   YZ=             25.5430

 Normal termination of Gaussian 09 at Thu Nov  2 21:56:37 2017.
