 Gaussian 09, Revision D.01,
 Gaussian 09:  ES64L-G09RevD.01 24-Apr-2013

 ------------------------------------------
 #p wb97xd 6-311++G** td=(nstates=4) nosymm
 ------------------------------------------

 -----
 Title
 -----
 Symbolic Z-matrix:
 Charge =  0 Multiplicity = 1

                          Input orientation:
 ---------------------------------------------------------------------
 Center     Atomic      Atomic             Coordinates (Angstroms)
 Number     Number       Type             X           Y           Z
 ---------------------------------------------------------------------
      1          1           0        0.433308   -5.648799   -1.480377
      2          6           0        1.319203   -5.182804   -1.020786
      3          1           0        1.431529   -5.542138    0.007956
      4          1           0        1.185153   -4.090391   -1.009865
      5          7           0        2.502652   -5.531956   -1.791767
      6          6           0        3.511478   -6.215690   -1.250017
      7          6           0        2.517810   -5.091084   -3.178332
      8          6           0        4.700006   -6.567836   -1.863930
      9          1           0        3.354274   -6.514050   -0.211815
     10          1           0        2.912771   -5.884357   -3.823351
     11          1           0        1.492967   -4.863322   -3.491161
     12          1           0        3.127881   -4.181816   -3.297179
     13          6           0        5.667812   -7.360004   -1.179567
     14          1           0        4.904648   -6.244331   -2.879200
     15          6           0        6.968676   -7.692910   -1.813118
     16          8           0        5.446779   -7.822733    0.004446
     17          6           0        7.865521   -8.583573   -1.143648
     18          6           0        7.384494   -7.151431   -3.044341
     19          1           0        6.608559   -8.659062    0.253102
     20          6           0        9.110772   -8.901567   -1.712336
     21          8           0        7.528910   -9.126371    0.045324
     22          6           0        8.623319   -7.458124   -3.592445
     23          1           0        6.729246   -6.476223   -3.588784
     24          6           0        9.487705   -8.337179   -2.923469
     25          1           0        9.754833   -9.598270   -1.173810
     26          1           0        8.926685   -7.013164   -4.540066
     27          1           0       10.456188   -8.573545   -3.369065
 ---------------------------------------------------------------------

 SCF Done:  E(RwB97XD) =  -632.145595946     A.U. after   18 cycles

 Excitation energies and oscillator strengths:

 Excited state symmetry could not be determined.
 Excited State   1:      Singlet-?Sym    3.8775 eV  319.75 nm  f=0.4596  <S**2>=0.000
      51 -> 52         0.67838
 This state for optimization and/or second-order correction.
 Total Energy, E(TD-HF/TD-KS) =  -632.003100779
 Copying the excited state density for this state as the 1-particle RhoCI density.

 Excited state symmetry could not be determined.
 Excited State   2:      Singlet-?Sym    4.1490 eV  298.83 nm  f=0.0025  <S**2>=0.000
      48 -> 52         0.67038
      49 -> 52         0.11288

 Excited state symmetry could not be determined.
 Excited State   3:      Singlet-?Sym    4.4593 eV  278.03 nm  f=0.2987  <S**2>=0.000
      50 -> 52         0.67670

 Excited state symmetry could not be determined.
 Excited State   4:      Singlet-?Sym    5.1928 eV  238.76 nm  f=0.0354  <S**2>=0.000
      49 -> 52         0.56300
      50 -> 58         0.13542
      51 -> 57        -0.10762
      51 -> 58        -0.24061
      51 -> 62        -0.14746

 Alpha  occ. eigenvalues --  -19.23445 -19.22396 -14.50205 -10.37674 -10.35914
 Alpha  occ. eigenvalues --  -10.34869 -10.34828 -10.34597 -10.29595 -10.29359
 Alpha  occ. eigenvalues --  -10.29203 -10.28082 -10.27984 -10.27764  -1.14067
 Alpha  occ. eigenvalues --   -1.10295  -1.09651  -0.95047  -0.89882  -0.86156
 Alpha  occ. eigenvalues --   -0.85794  -0.83059  -0.80827  -0.73387  -0.70014
 Alpha  occ. eigenvalues --   -0.68172  -0.65480  -0.63094  -0.59465  -0.59326
 Alpha  occ. eigenvalues --   -0.58980  -0.58288  -0.55006  -0.53116  -0.52335
 Alpha  occ. eigenvalues --   -0.51936  -0.51213  -0.50690  -0.50381  -0.50088
 Alpha  occ. eigenvalues --   -0.46935  -0.46370  -0.45879  -0.44887  -0.42276
 Alpha  occ. eigenvalues --   -0.41733  -0.41258  -0.33601  -0.33313  -0.30296
 Alpha  occ. eigenvalues --   -0.28276
 Alpha virt. eigenvalues --   -0.00414   0.02393   0.04001   0.04914   0.05360
 Alpha virt. eigenvalues --    0.05849   0.05964   0.06547   0.07546   0.07734
 Alpha virt. eigenvalues --    0.08085   0.08224   0.08278   0.09962   0.10248

 Mulliken charges:
               1
     1  H    0.186102
     2  C   -0.309269
     3  H    0.147555
     4  H    0.182776
     5  N    0.145510
     6  C    0.296696
     7  C   -0.445465
     8  C   -0.079357
     9  H    0.233312
    10  H    0.181282
    11  H    0.186777
    12  H    0.212113
    13  C   -0.845376
    14  H    0.089679
    15  C    1.972479
    16  O   -0.363702
    17  C    0.221413
    18  C   -1.294986
    19  H    0.415345
    20  C   -0.536572
    21  O   -0.361234
    22  C   -0.675006
    23  H    0.085901
    24  C   -0.298757
    25  H    0.231590
    26  H    0.217210
    27  H    0.203983
 Sum of Mulliken charges =   0.00000

 Dipole moment (field-independent basis, Debye):
    X=             -5.6806    Y=              4.7519    Z=             -3.5966  Tot=              8.2332
 Quadrupole moment (field-independent basis, Debye-Ang):
   XX=           -125.5108   YY=           -151.6478   ZZ=            -72.6758
   XY=             56.9853   XZ=            -15.4007   YZ=             19.1264

 Normal termination of Gaussian 09 at Thu Nov  2 22:37:30 2017.
