 Gaussian 09, Revision D.01,
 Gaussian 09:  ES64L-G09RevD.01 24-Apr-2013

 ------------------------------------------
 #p wb97xd 6-311++G** td=(nstates=4) nosymm
 ------------------------------------------

 -----
 Title
 -----
 Symbolic Z-matrix:
 Charge =  0 Multiplicity = 1

                          Input orientation:
 ---------------------------------------------------------------------
 Center     Atomic      Atomic             Coordinates (Angstroms)
 Number     Number       Type             X           Y           Z
 ---------------------------------------------------------------------
      1          6           0       -0.549514   -2.421375   -3.556489
      2          6           0        0.748952   -2.084530   -4.185680
      3          6           0       -1.435128   -3.316549   -4.234244
      4          6           0       -0.970489   -1.888841   -2.320671
      5          8           0        0.972908   -2.549156   -5.370477
      6          6           0        1.712641   -1.292266   -3.496460
      7          6           0       -2.678296   -3.642643   -3.669457
      8          8           0       -1.094483   -3.862251   -5.419024
      9          6           0       -2.205884   -2.208878   -1.773965
     10          1           0       -0.320388   -1.208760   -1.775770
     11          1           0       -0.169942   -3.394053   -5.620683
     12          6           0        2.901163   -0.936609   -4.107270
     13          1           0        1.505636   -0.972217   -2.480867
     14          6           0       -3.058648   -3.089708   -2.454186
     15          1           0       -3.318449   -4.339669   -4.212269
     16          1           0       -2.515509   -1.774510   -0.823695
     17          1           0        3.057591   -1.228212   -5.147628
     18          7           0        3.911606   -0.259407   -3.559222
     19          1           0       -4.027919   -3.334554   -2.016044
     20          6           0        3.893413    0.167594   -2.168239
     21          6           0        5.095997    0.094821   -4.328347
     22          1           0        3.501736   -0.633692   -1.532362
     23          1           0        4.916749    0.396317   -1.851515
     24          1           0        3.278691    1.072565   -2.042548
     25          1           0        4.984634   -0.264548   -5.357440
     26          1           0        5.983314   -0.369690   -3.870035
     27          1           0        5.226221    1.187487   -4.339873
     28          1           0        0.433308   -5.648799   -1.480377
     29          6           0        1.319203   -5.182804   -1.020786
     30          1           0        1.431529   -5.542138    0.007956
     31          1           0        1.185153   -4.090391   -1.009865
     32          7           0        2.502652   -5.531956   -1.791767
     33          6           0        3.511478   -6.215690   -1.250017
     34          6           0        2.517810   -5.091084   -3.178332
     35          6           0        4.700006   -6.567836   -1.863930
     36          1           0        3.354274   -6.514050   -0.211815
     37          1           0        2.912771   -5.884357   -3.823351
     38          1           0        1.492967   -4.863322   -3.491161
     39          1           0        3.127881   -4.181816   -3.297179
     40          6           0        5.667812   -7.360004   -1.179567
     41          1           0        4.904648   -6.244331   -2.879200
     42          6           0        6.968676   -7.692910   -1.813118
     43          8           0        5.446779   -7.822733    0.004446
     44          6           0        7.865521   -8.583573   -1.143648
     45          6           0        7.384494   -7.151431   -3.044341
     46          1           0        6.608559   -8.659062    0.253102
     47          6           0        9.110772   -8.901567   -1.712336
     48          8           0        7.528910   -9.126371    0.045324
     49          6           0        8.623319   -7.458124   -3.592445
     50          1           0        6.729246   -6.476223   -3.588784
     51          6           0        9.487705   -8.337179   -2.923469
     52          1           0        9.754833   -9.598270   -1.173810
     53          1           0        8.926685   -7.013164   -4.540066
     54          1           0       10.456188   -8.573545   -3.369065
 ---------------------------------------------------------------------

 SCF Done:  E(RwB97XD) =  -1264.30166050     A.U. after   17 cycles

 Excitation energies and oscillator strengths:

 Excited state symmetry could not be determined.
 Excited State   1:      Singlet-?Sym    3.8566 eV  321.49 nm  f=0.4060  <S**2>=0.000
     100 ->103         0.57353
     101 ->103         0.35907
 This state for optimization and/or second-order correction.
 Total Energy, E(TD-HF/TD-KS) =  -1264.15993311
 Copying the excited state density for this state as the 1-particle RhoCI density.

 Excited state symmetry could not be determined.
 Excited State   2:      Singlet-?Sym    3.8871 eV  318.96 nm  f=0.5633  <S**2>=0.000
     102 ->104         0.67332

 Excited state symmetry could not be determined.
 Excited State   3:      Singlet-?Sym    4.1499 eV  298.77 nm  f=0.0029  <S**2>=0.000
      95 ->103        -0.66509
      96 ->103         0.14186

 Excited state symmetry could not be determined.
 Excited State   4:      Singlet-?Sym    4.1729 eV  297.12 nm  f=0.0030  <S**2>=0.000
      97 ->104        -0.65038
      98 ->104         0.18632

 Alpha  occ. eigenvalues --  -19.25096 -19.24087 -19.23207 -19.21979 -14.51589
 Alpha  occ. eigenvalues --  -14.49394 -10.39308 -10.37412 -10.37249 -10.36457
 Alpha  occ. eigenvalues --  -10.35859 -10.35656 -10.35293 -10.34607 -10.33789
 Alpha  occ. eigenvalues --  -10.33137 -10.31268 -10.30897 -10.30892 -10.29632
 Alpha  occ. eigenvalues --  -10.29588 -10.29394 -10.29307 -10.29189 -10.28966
 Alpha  occ. eigenvalues --  -10.27829 -10.27595 -10.27498  -1.15789  -1.13774
 Alpha  occ. eigenvalues --   -1.11896  -1.10955  -1.09909  -1.08801  -0.96703
 Alpha  occ. eigenvalues --   -0.94847  -0.91373  -0.89233  -0.87713  -0.86910
 Alpha  occ. eigenvalues --   -0.85801  -0.84727  -0.84595  -0.82852  -0.82218
 Alpha  occ. eigenvalues --   -0.80125  -0.74960  -0.73020  -0.71506  -0.69715
 Alpha  occ. eigenvalues --   -0.69511  -0.67810  -0.66934  -0.64780  -0.64465
 Alpha  occ. eigenvalues --   -0.62387  -0.60938  -0.60547  -0.60447  -0.59733
 Alpha  occ. eigenvalues --   -0.59076  -0.58638  -0.58240  -0.57653  -0.56589
 Alpha  occ. eigenvalues --   -0.54717  -0.54463  -0.53386  -0.53371  -0.52970
 Alpha  occ. eigenvalues --   -0.52531  -0.52199  -0.51950  -0.51462  -0.51148
 Alpha  occ. eigenvalues --   -0.51116  -0.50377  -0.50316  -0.49990  -0.48854
 Alpha  occ. eigenvalues --   -0.48467  -0.47943  -0.47452  -0.46429  -0.46392
 Alpha  occ. eigenvalues --   -0.46076  -0.45543  -0.44680  -0.43677  -0.43374
 Alpha  occ. eigenvalues --   -0.42928  -0.41577  -0.41453  -0.41044  -0.35248
 Alpha  occ. eigenvalues --   -0.34962  -0.33254  -0.33087  -0.31883  -0.29978
 Alpha  occ. eigenvalues --   -0.29730  -0.27942
 Alpha virt. eigenvalues --   -0.02124  -0.00001   0.01696   0.02908   0.03745
 Alpha virt. eigenvalues --    0.04099   0.04287   0.04783   0.05056   0.05354
 Alpha virt. eigenvalues --    0.05539   0.06128   0.06397   0.06482   0.06582

 Mulliken charges:
               1
     1  C    1.006301
     2  C   -0.513330
     3  C    0.137351
     4  C   -0.663501
     5  O   -0.327884
     6  C   -0.545672
     7  C   -0.423556
     8  O   -0.301178
     9  C   -0.354046
    10  H    0.146882
    11  H    0.388831
    12  C    0.212925
    13  H    0.106369
    14  C   -0.429538
    15  H    0.250865
    16  H    0.229410
    17  H    0.234025
    18  N    0.232653
    19  H    0.218198
    20  C   -0.440035
    21  C   -0.304558
    22  H    0.190370
    23  H    0.199155
    24  H    0.213797
    25  H    0.145288
    26  H    0.188198
    27  H    0.191609
    28  H    0.225332
    29  C   -0.322708
    30  H    0.144199
    31  H    0.174126
    32  N    0.211922
    33  C    0.937588
    34  C   -0.386459
    35  C   -0.484008
    36  H    0.248801
    37  H    0.209554
    38  H    0.141831
    39  H    0.220696
    40  C   -0.761862
    41  H    0.014899
    42  C    1.693123
    43  O   -0.381707
    44  C    0.004935
    45  C   -1.123884
    46  H    0.416733
    47  C   -0.522991
    48  O   -0.355357
    49  C   -0.650410
    50  H    0.057894
    51  C   -0.353960
    52  H    0.232276
    53  H    0.216977
    54  H    0.203531
 Sum of Mulliken charges =   0.00000

 Dipole moment (field-independent basis, Debye):
    X=             -0.6819    Y=             10.1606    Z=             -0.2541  Tot=             10.1867
 Quadrupole moment (field-independent basis, Debye-Ang):
   XX=           -180.8445   YY=           -256.7778   ZZ=           -182.6746
   XY=             66.4753   XZ=            -37.2326   YZ=             -7.0696

 Normal termination of Gaussian 09 at Fri Nov  3 00:02:01 2017.
