 Gaussian 09, Revision D.01,
 Gaussian 09:  ES64L-G09RevD.01 24-Apr-2013

 ------------------------------------------
 #p wb97xd 6-311++G** td=(nstates=4) nosymm
 ------------------------------------------

 -----
 Title
 -----
 Symbolic Z-matrix:
 Charge =  0 Multiplicity = 1

                          Input orientation:
 ---------------------------------------------------------------------
 Center     Atomic      Atomic             Coordinates (Angstroms)
 Number     Number       Type             X           Y           Z
 ---------------------------------------------------------------------
      1          6           0       -0.549514   -2.421375   -3.556489
      2          6           0        0.748952   -2.084530   -4.185680
      3          6           0       -1.435128   -3.316549   -4.234244
      4          6           0       -0.970489   -1.888841   -2.320671
      5          8           0        0.972908   -2.549156   -5.370477
      6          6           0        1.712641   -1.292266   -3.496460
      7          6           0       -2.678296   -3.642643   -3.669457
      8          8           0       -1.094483   -3.862251   -5.419024
      9          6           0       -2.205884   -2.208878   -1.773965
     10          1           0       -0.320388   -1.208760   -1.775770
     11          1           0       -0.169942   -3.394053   -5.620683
     12          6           0        2.901163   -0.936609   -4.107270
     13          1           0        1.505636   -0.972217   -2.480867
     14          6           0       -3.058648   -3.089708   -2.454186
     15          1           0       -3.318449   -4.339669   -4.212269
     16          1           0       -2.515509   -1.774510   -0.823695
     17          1           0        3.057591   -1.228212   -5.147628
     18          7           0        3.911606   -0.259407   -3.559222
     19          1           0       -4.027919   -3.334554   -2.016044
     20          6           0        3.893413    0.167594   -2.168239
     21          6           0        5.095997    0.094821   -4.328347
     22          1           0        3.501736   -0.633692   -1.532362
     23          1           0        4.916749    0.396317   -1.851515
     24          1           0        3.278691    1.072565   -2.042548
     25          1           0        4.984634   -0.264548   -5.357440
     26          1           0        5.983314   -0.369690   -3.870035
     27          1           0        5.226221    1.187487   -4.339873
     28          1           0       -0.791034   -0.921731    1.173810
     29          6           0       -0.146972   -1.618434    1.712336
     30          6           0        1.098278   -1.936428    1.143649
     31          6           0       -0.523906   -2.182823    2.923469
     32          8           0        1.434889   -1.393630   -0.045323
     33          6           0        1.995124   -2.827091    1.813118
     34          1           0       -1.492388   -1.946456    3.369065
     35          6           0        0.340481   -3.061877    3.592445
     36          1           0        2.355241   -1.860939   -0.253101
     37          6           0        3.295988   -3.159996    1.179567
     38          6           0        1.579305   -3.368570    3.044342
     39          1           0        0.037115   -3.506837    4.540067
     40          8           0        3.517018   -2.697268   -0.004446
     41          6           0        4.263794   -3.952165    1.863930
     42          1           0        2.234555   -4.043778    3.588784
     43          6           0        5.452322   -4.304311    1.250017
     44          1           0        4.059152   -4.275670    2.879200
     45          1           0        5.609526   -4.005951    0.211815
     46          7           0        6.461148   -4.988045    1.791767
     47          6           0        6.445990   -5.428917    3.178332
     48          6           0        7.644597   -5.337196    1.020785
     49          1           0        6.051029   -4.635644    3.823351
     50          1           0        7.470833   -5.656679    3.491160
     51          1           0        5.835919   -6.338185    3.297179
     52          1           0        7.532271   -4.977862   -0.007957
     53          1           0        7.778647   -6.429610    1.009865
     54          1           0        8.530492   -4.871202    1.480377
 ---------------------------------------------------------------------

 SCF Done:  E(RwB97XD) =  -1264.30051301     A.U. after   18 cycles

 Excitation energies and oscillator strengths:

 Excited state symmetry could not be determined.
 Excited State   1:      Singlet-?Sym    3.8779 eV  319.72 nm  f=0.2184  <S**2>=0.000
     100 ->103        -0.44579
     102 ->104         0.50883
 This state for optimization and/or second-order correction.
 Total Energy, E(TD-HF/TD-KS) =  -1264.15800461
 Copying the excited state density for this state as the 1-particle RhoCI density.

 Excited state symmetry could not be determined.
 Excited State   2:      Singlet-?Sym    3.8929 eV  318.49 nm  f=0.6998  <S**2>=0.000
     100 ->103         0.50951
     102 ->104         0.44297

 Excited state symmetry could not be determined.
 Excited State   3:      Singlet-?Sym    4.1728 eV  297.12 nm  f=0.0045  <S**2>=0.000
      97 ->104        -0.66178
      98 ->104         0.13442

 Excited state symmetry could not be determined.
 Excited State   4:      Singlet-?Sym    4.2228 eV  293.61 nm  f=0.0002  <S**2>=0.000
      95 ->103         0.67447

 Alpha  occ. eigenvalues --  -19.24996 -19.23525 -19.21856 -19.20627 -14.51000
 Alpha  occ. eigenvalues --  -14.48257 -10.38717 -10.36772 -10.35909 -10.35776
 Alpha  occ. eigenvalues --  -10.35517 -10.35217 -10.33928 -10.33462 -10.33103
 Alpha  occ. eigenvalues --  -10.32146 -10.30400 -10.30166 -10.30154 -10.28924
 Alpha  occ. eigenvalues --  -10.28785 -10.28700 -10.27740 -10.27460 -10.27336
 Alpha  occ. eigenvalues --  -10.26217 -10.26090 -10.25829  -1.15469  -1.12446
 Alpha  occ. eigenvalues --   -1.11535  -1.10454  -1.08523  -1.07707  -0.95924
 Alpha  occ. eigenvalues --   -0.93263  -0.90714  -0.87924  -0.87008  -0.86458
 Alpha  occ. eigenvalues --   -0.84337  -0.84022  -0.83747  -0.81639  -0.81340
 Alpha  occ. eigenvalues --   -0.78945  -0.74275  -0.71614  -0.70878  -0.69224
 Alpha  occ. eigenvalues --   -0.68123  -0.66461  -0.66325  -0.63916  -0.63497
 Alpha  occ. eigenvalues --   -0.61315  -0.60450  -0.59998  -0.59943  -0.59225
 Alpha  occ. eigenvalues --   -0.57640  -0.57438  -0.57218  -0.56563  -0.55819
 Alpha  occ. eigenvalues --   -0.53952  -0.53262  -0.52959  -0.52829  -0.52071
 Alpha  occ. eigenvalues --   -0.51888  -0.51455  -0.51218  -0.50753  -0.50391
 Alpha  occ. eigenvalues --   -0.50074  -0.49374  -0.48953  -0.48638  -0.48067
 Alpha  occ. eigenvalues --   -0.47863  -0.47373  -0.46894  -0.45830  -0.44941
 Alpha  occ. eigenvalues --   -0.44605  -0.44131  -0.43265  -0.43106  -0.42710
 Alpha  occ. eigenvalues --   -0.42301  -0.40351  -0.39949  -0.39541  -0.34814
 Alpha  occ. eigenvalues --   -0.34186  -0.31858  -0.31525  -0.31164  -0.29287
 Alpha  occ. eigenvalues --   -0.28391  -0.26521
 Alpha virt. eigenvalues --   -0.01353   0.01353   0.01882   0.03156   0.03766
 Alpha virt. eigenvalues --    0.04564   0.04816   0.05148   0.05275   0.05649
 Alpha virt. eigenvalues --    0.06034   0.06616   0.06843   0.07009   0.07198

 Mulliken charges:
               1
     1  C    1.710367
     2  C   -0.852631
     3  C    0.219283
     4  C   -0.994410
     5  O   -0.379269
     6  C   -0.397310
     7  C   -0.457647
     8  O   -0.365597
     9  C   -0.661553
    10  H    0.112379
    11  H    0.416709
    12  C    0.657258
    13  H    0.131093
    14  C   -0.433998
    15  H    0.224989
    16  H    0.160243
    17  H    0.224267
    18  N    0.166300
    19  H    0.206253
    20  C   -0.414498
    21  C   -0.274497
    22  H    0.062765
    23  H    0.185280
    24  H    0.211816
    25  H    0.143159
    26  H    0.173970
    27  H    0.183834
    28  H    0.209293
    29  C   -0.211903
    30  C    0.085295
    31  C   -0.397687
    32  O   -0.256411
    33  C    1.785160
    34  H    0.221159
    35  C   -0.831606
    36  H    0.377695
    37  C   -0.746790
    38  C   -0.764881
    39  H    0.213857
    40  O   -0.260572
    41  C   -0.683078
    42  H    0.129092
    43  C    0.339026
    44  H    0.055801
    45  H    0.256331
    46  N    0.161468
    47  C   -0.449543
    48  C   -0.293541
    49  H    0.186008
    50  H    0.189865
    51  H    0.216080
    52  H    0.138532
    53  H    0.186133
    54  H    0.186664
 Sum of Mulliken charges =   0.00000

 Dipole moment (field-independent basis, Debye):
    X=             11.5849    Y=             -0.3961    Z=              8.5419  Tot=             14.3990
 Quadrupole moment (field-independent basis, Debye-Ang):
   XX=            -78.5481   YY=           -151.4214   ZZ=           -188.1987
   XY=            -45.7043   XZ=             -4.3554   YZ=            -48.2840

 Normal termination of Gaussian 09 at Fri Nov  3 00:36:09 2017.
