 Gaussian 09, Revision D.01,
 Gaussian 09:  ES64L-G09RevD.01 24-Apr-2013

 -----------------------------------
 #p HF 3-21G pop=ESP density=current
 -----------------------------------

 -----
 title
 -----
 Symbolic Z-matrix:
 Charge =  0 Multiplicity = 1

                         Standard orientation:
 ---------------------------------------------------------------------
 Center     Atomic      Atomic             Coordinates (Angstroms)
 Number     Number       Type             X           Y           Z
 ---------------------------------------------------------------------
      1          6           0       -3.737233    1.621333    0.243209
      2          1           0       -4.749347    1.837466    0.602038
      3          1           0       -3.568474    2.186653   -0.686624
      4          1           0       -3.019891    1.944946    1.005117
      5          7           0       -3.611576    0.190232    0.011572
      6          6           0       -4.855586   -0.553918   -0.124412
      7          6           0       -2.424980   -0.413473   -0.074947
      8          1           0       -5.443764   -0.156307   -0.965224
      9          1           0       -4.631309   -1.610140   -0.310625
     10          1           0       -5.442333   -0.459956    0.802977
     11          6           0       -1.181378    0.187267   -0.006167
     12          1           0       -2.471788   -1.495369   -0.213359
     13          1           0       -1.101932    1.265810    0.078356
     14          6           0        0.008334   -0.596860   -0.039833
     15          6           0        1.343572    0.045177   -0.022794
     16          8           0       -0.029240   -1.888129   -0.071302
     17          6           0        2.507495   -0.781172    0.063414
     18          6           0        1.531183    1.440250   -0.104226
     19          1           0        1.357921   -2.266848    0.050785
     20          6           0        3.786287   -0.201976    0.066804
     21          8           0        2.399550   -2.122537    0.144768
     22          6           0        2.799812    2.004213   -0.110254
     23          1           0        0.668321    2.098797   -0.166211
     24          6           0        3.927854    1.176097   -0.023542
     25          1           0        4.647532   -0.866836    0.147444
     26          1           0        2.920663    3.084487   -0.187438
     27          1           0        4.920786    1.629368   -0.029475
 ---------------------------------------------------------------------

 SCF Done:  E(RHF) =  -624.779638883     A.U. after   15 cycles

 The electronic state is 1-A.
 Alpha  occ. eigenvalues --  -20.42942 -20.42881 -15.55207 -11.28501 -11.26839
 Alpha  occ. eigenvalues --  -11.24953 -11.23835 -11.23309 -11.19472 -11.19024
 Alpha  occ. eigenvalues --  -11.18061 -11.16836 -11.16351 -11.16298  -1.38047
 Alpha  occ. eigenvalues --   -1.33571  -1.30499  -1.14369  -1.07092  -1.02883
 Alpha  occ. eigenvalues --   -1.00629  -0.99448  -0.95594  -0.86805  -0.82229
 Alpha  occ. eigenvalues --   -0.79782  -0.75934  -0.72410  -0.68468  -0.68359
 Alpha  occ. eigenvalues --   -0.67527  -0.66708  -0.63772  -0.60861  -0.59612
 Alpha  occ. eigenvalues --   -0.58861  -0.58187  -0.57985  -0.57115  -0.56339
 Alpha  occ. eigenvalues --   -0.53788  -0.53081  -0.51938  -0.51801  -0.48049
 Alpha  occ. eigenvalues --   -0.46845  -0.46085  -0.39553  -0.34751  -0.31686
 Alpha  occ. eigenvalues --   -0.29214
 Alpha virt. eigenvalues --    0.07651   0.15773   0.17928   0.23129   0.25062
 Alpha virt. eigenvalues --    0.27106   0.27845   0.28653   0.29203   0.30427
 Alpha virt. eigenvalues --    0.31433   0.33805   0.33984   0.35240   0.36220

 Mulliken charges:
               1
     1  C   -0.331954
     2  H    0.222476
     3  H    0.223428
     4  H    0.233017
     5  N   -0.872274
     6  C   -0.322442
     7  C    0.338527
     8  H    0.220456
     9  H    0.224364
    10  H    0.220022
    11  C   -0.465972
    12  H    0.302485
    13  H    0.230924
    14  C    0.599448
    15  C   -0.277268
    16  O   -0.738390
    17  C    0.472529
    18  C   -0.189290
    19  H    0.464440
    20  C   -0.267133
    21  O   -0.790739
    22  C   -0.273122
    23  H    0.242829
    24  C   -0.203149
    25  H    0.259874
    26  H    0.231724
    27  H    0.245190
 Sum of Mulliken charges =   0.00000

 Dipole moment (field-independent basis, Debye):
    X=             -7.0337    Y=              4.6132    Z=             -0.1176  Tot=              8.4124
 Quadrupole moment (field-independent basis, Debye-Ang):
   XX=            -56.8159   YY=            -86.2123   ZZ=            -89.2618
   XY=              6.5597   XZ=             -0.3664   YZ=              0.8541

 ESP charges:
               1
     1  C   -0.319631
     2  H    0.145208
     3  H    0.135848
     4  H    0.144557
     5  N   -0.001024
     6  C   -0.370116
     7  C    0.187024
     8  H    0.147748
     9  H    0.153115
    10  H    0.143815
    11  C   -0.838468
    12  H    0.172839
    13  H    0.264509
    14  C    0.965353
    15  C   -0.665466
    16  O   -0.715468
    17  C    0.806481
    18  C    0.067962
    19  H    0.523854
    20  C   -0.550701
    21  O   -0.763121
    22  C   -0.397156
    23  H    0.136456
    24  C    0.042379
    25  H    0.240313
    26  H    0.189423
    27  H    0.154267
 Sum of ESP charges =   0.00000

 Normal termination of Gaussian 09 at Tue Nov 28 17:19:59 2017.
