 Gaussian 09, Revision D.01,
 Gaussian 09:  ES64L-G09RevD.01 24-Apr-2013

 ------------------------------------------
 #p wb97xd/6-311++G** td=(nstates=2) nosymm
 ------------------------------------------

 -----
 Title
 -----
 Symbolic Z-matrix:
 Charge =  0 Multiplicity = 1

                          Input orientation:
 ---------------------------------------------------------------------
 Center     Atomic      Atomic             Coordinates (Angstroms)
 Number     Number       Type             X           Y           Z
 ---------------------------------------------------------------------
      1          6           0       -1.257452   -5.583138   -0.600811
      2          7           0       -1.194399   -5.646769   -1.956156
      3          6           0       -0.374111   -4.748425    0.139636
      4          6           0       -2.215671   -6.336129    0.129863
      5          6           0       -0.232107   -4.837984   -2.686402
      6          6           0       -2.079427   -6.544253   -2.679249
      7          1           0        0.378610   -4.156324   -0.375434
      8          6           0       -0.456340   -4.675862    1.511142
      9          1           0       -2.909919   -6.992782   -0.390750
     10          6           0       -2.283218   -6.245357    1.504970
     11          1           0       -0.307216   -3.777002   -2.405837
     12          1           0       -0.442540   -4.919815   -3.755638
     13          1           0        0.800975   -5.176595   -2.502194
     14          1           0       -1.935911   -7.587662   -2.357672
     15          1           0       -1.859832   -6.480312   -3.749711
     16          1           0       -3.137161   -6.277181   -2.521282
     17          6           0       -1.405282   -5.424284    2.248113
     18          1           0        0.234383   -4.017044    2.035475
     19          1           0       -3.041168   -6.819620    2.037230
     20          6           0       -1.495258   -5.395364    3.676326
     21          1           0       -2.272715   -6.019724    4.126875
     22          6           0       -0.704022   -4.671554    4.524986
     23          6           0       -0.871863   -4.704107    5.956408
     24          1           0        0.079500   -4.036186    4.118343
     25          6           0       -0.013501   -3.898230    6.826624
     26          8           0       -1.773920   -5.448889    6.493531
     27          6           0       -0.189741   -3.982822    8.241990
     28          6           0        1.000968   -3.037749    6.349474
     29          1           0       -1.602833   -5.190309    7.885818
     30          6           0        0.636785   -3.264565    9.118195
     31          8           0       -1.167361   -4.750350    8.752749
     32          6           0        1.821195   -2.333268    7.202395
     33          1           0        1.136193   -2.896145    5.279103
     34          1           0        0.474759   -3.369501   10.188265
     35          6           0        1.641143   -2.450821    8.598058
     36          1           0        2.606474   -1.679058    6.827160
     37          8           0        2.494175   -1.720689    9.354721
     38          6           0        2.293433   -1.690772   10.773673
     39          1           0        1.290663   -1.294820   11.004059
     40          1           0        3.063404   -1.019976   11.165991
     41          1           0        2.410292   -2.696403   11.205207
 ---------------------------------------------------------------------

 SCF Done:  E(RwB97XD) =  -977.686184293     A.U. after   17 cycles

 Excitation energies and oscillator strengths:

 Excited state symmetry could not be determined.
 Excited State   1:      Singlet-?Sym    3.3585 eV  369.17 nm  f=1.3190  <S**2>=0.000
      74 -> 80        -0.10093
      78 -> 80        -0.11366
      78 -> 82         0.11915
      79 -> 80         0.66826
 This state for optimization and/or second-order correction.
 Total Energy, E(TD-HF/TD-KS) =  -977.562762549
 Copying the excited state density for this state as the 1-particle RhoCI density.

 Excited state symmetry could not be determined.
 Excited State   2:      Singlet-?Sym    3.9343 eV  315.14 nm  f=0.0006  <S**2>=0.000
      76 -> 80         0.66293
      76 -> 82        -0.13678

 Alpha  occ. eigenvalues --  -19.28790 -19.24001 -19.22960 -14.47596 -10.37759
 Alpha  occ. eigenvalues --  -10.36174 -10.35710 -10.35174 -10.34361 -10.33530
 Alpha  occ. eigenvalues --  -10.33483 -10.31341 -10.30545 -10.30480 -10.30247
 Alpha  occ. eigenvalues --  -10.29812 -10.29731 -10.29510 -10.28930 -10.28695
 Alpha  occ. eigenvalues --  -10.28072 -10.28001  -1.17883  -1.14743  -1.10709
 Alpha  occ. eigenvalues --   -1.07954  -0.96949  -0.95494  -0.90806  -0.87432
 Alpha  occ. eigenvalues --   -0.86943  -0.84849  -0.84530  -0.84017  -0.81052
 Alpha  occ. eigenvalues --   -0.78678  -0.73591  -0.71720  -0.70931  -0.69905
 Alpha  occ. eigenvalues --   -0.67804  -0.64483  -0.63357  -0.62294  -0.61125
 Alpha  occ. eigenvalues --   -0.59010  -0.58854  -0.57677  -0.56818  -0.56464
 Alpha  occ. eigenvalues --   -0.55422  -0.54299  -0.54016  -0.53155  -0.52506
 Alpha  occ. eigenvalues --   -0.51383  -0.51260  -0.51066  -0.50586  -0.49845
 Alpha  occ. eigenvalues --   -0.49142  -0.48483  -0.48047  -0.47252  -0.46825
 Alpha  occ. eigenvalues --   -0.46557  -0.45577  -0.44426  -0.43265  -0.42460
 Alpha  occ. eigenvalues --   -0.41804  -0.41125  -0.39263  -0.34904  -0.34731
 Alpha  occ. eigenvalues --   -0.33947  -0.31498  -0.29265  -0.26664
 Alpha virt. eigenvalues --   -0.02445   0.02706   0.03861   0.03975   0.04394
 Alpha virt. eigenvalues --    0.04658   0.04764   0.05530   0.06168   0.06490
 Alpha virt. eigenvalues --    0.06633   0.06929   0.07534   0.07933   0.08130

 Mulliken charges:
               1
     1  C   -0.501157
     2  N    0.064986
     3  C   -0.354510
     4  C   -0.257753
     5  C   -0.391916
     6  C   -0.386630
     7  H    0.223443
     8  C   -0.462289
     9  H    0.190250
    10  C   -0.249239
    11  H    0.161789
    12  H    0.155711
    13  H    0.190903
    14  H    0.176155
    15  H    0.158817
    16  H    0.175626
    17  C    0.727448
    18  H    0.153613
    19  H    0.214537
    20  C    0.099492
    21  H    0.243961
    22  C    0.175312
    23  C   -0.002277
    24  H   -0.209616
    25  C    1.259153
    26  O   -0.382516
    27  C   -0.126629
    28  C   -0.460956
    29  H    0.440773
    30  C   -0.123553
    31  O   -0.363186
    32  C   -0.767112
    33  H    0.151014
    34  H    0.237525
    35  C   -0.451256
    36  H    0.232934
    37  O   -0.129647
    38  C   -0.373001
    39  H    0.174045
    40  H    0.219088
    41  H    0.166665
 Sum of Mulliken charges =   0.00000

 Dipole moment (field-independent basis, Debye):
    X=              1.5505    Y=              0.8539    Z=             -7.4297  Tot=              7.6377
 Quadrupole moment (field-independent basis, Debye-Ang):
   XX=           -131.6043   YY=           -136.2585   ZZ=           -141.8724
   XY=              0.2455   XZ=             24.6265   YZ=             54.5570

 Normal termination of Gaussian 09 at Thu Nov  2 22:03:54 2017.
