 Gaussian 09, Revision D.01,
 Gaussian 09:  ES64L-G09RevD.01 24-Apr-2013

 ------------------------------------------
 #p wb97xd/6-311++G** td=(nstates=2) nosymm
 ------------------------------------------

 -----
 Title
 -----
 Symbolic Z-matrix:
 Charge =  0 Multiplicity = 1

                          Input orientation:
 ---------------------------------------------------------------------
 Center     Atomic      Atomic             Coordinates (Angstroms)
 Number     Number       Type             X           Y           Z
 ---------------------------------------------------------------------
      1          1           0        0.539269   -0.757276   -1.518015
      2          6           0        1.316716   -1.381636   -1.968554
      3          6           0        1.406691   -1.352716   -3.396768
      4          6           0        2.107951   -2.105446   -1.119894
      5          6           0        0.528755   -0.531643   -4.139920
      6          6           0        2.355633   -2.101138   -4.133738
      7          1           0        2.891473   -2.740814   -1.526547
      8          6           0        1.940107   -2.072893    0.311518
      9          6           0        0.596312   -0.440871   -5.515017
     10          1           0       -0.229195    0.042620   -3.607661
     11          6           0        2.437872   -2.028575   -5.505255
     12          1           0        3.046357   -2.759955   -3.609406
     13          6           0        2.798479   -2.878770    1.181744
     14          8           0        1.038050   -1.328111    0.848651
     15          6           0        1.554518   -1.193862   -6.245691
     16          1           0       -0.097949    0.215782   -6.035640
     17          1           0        3.190590   -2.620676   -6.020314
     18          6           0        2.622229   -2.794178    2.597110
     19          6           0        3.812938   -3.739251    0.704584
     20          1           0        1.209147   -1.586690    2.240938
     21          7           0        1.617571   -1.130231   -7.601046
     22          6           0        3.448765   -3.512435    3.473315
     23          8           0        1.644609   -2.026650    3.107859
     24          1           0        3.948167   -3.880855   -0.365788
     25          6           0        4.633175   -4.443732    1.557505
     26          6           0        2.579873   -1.939015   -8.331282
     27          6           0        0.732543   -0.232747   -8.324129
     28          1           0        3.286739   -3.407499    4.543375
     29          6           0        4.453123   -4.326179    2.953178
     30          1           0        5.418454   -5.097941    1.182270
     31          1           0        2.504764   -2.999998   -8.050717
     32          1           0        2.369440   -1.857185   -9.400518
     33          1           0        3.612955   -1.600405   -8.147074
     34          1           0        0.952148   -0.296688   -9.394601
     35          1           0       -0.325191   -0.499819   -8.166162
     36          1           0        0.876069    0.810662   -8.002562
     37          8           0        5.306155   -5.056311    3.709831
     38          6           0        5.105413   -5.086228    5.128793
     39          1           0        4.102643   -5.482180    5.359169
     40          1           0        5.875374   -5.757014    5.521101
     41          1           0        5.222262   -4.080597    5.560317
 ---------------------------------------------------------------------

 SCF Done:  E(RwB97XD) =  -977.686184346     A.U. after   17 cycles

 Excitation energies and oscillator strengths:

 Excited state symmetry could not be determined.
 Excited State   1:      Singlet-?Sym    3.3585 eV  369.17 nm  f=1.3190  <S**2>=0.000
      74 -> 80        -0.10092
      78 -> 80        -0.11365
      78 -> 82        -0.11915
      79 -> 80         0.66826
 This state for optimization and/or second-order correction.
 Total Energy, E(TD-HF/TD-KS) =  -977.562762954
 Copying the excited state density for this state as the 1-particle RhoCI density.

 Excited state symmetry could not be determined.
 Excited State   2:      Singlet-?Sym    3.9343 eV  315.14 nm  f=0.0006  <S**2>=0.000
      76 -> 80        -0.66293
      76 -> 82        -0.13677

 Alpha  occ. eigenvalues --  -19.28790 -19.24001 -19.22960 -14.47596 -10.37759
 Alpha  occ. eigenvalues --  -10.36174 -10.35710 -10.35174 -10.34361 -10.33530
 Alpha  occ. eigenvalues --  -10.33483 -10.31341 -10.30545 -10.30480 -10.30247
 Alpha  occ. eigenvalues --  -10.29813 -10.29732 -10.29510 -10.28930 -10.28695
 Alpha  occ. eigenvalues --  -10.28072 -10.28001  -1.17883  -1.14743  -1.10709
 Alpha  occ. eigenvalues --   -1.07953  -0.96949  -0.95494  -0.90806  -0.87432
 Alpha  occ. eigenvalues --   -0.86943  -0.84849  -0.84530  -0.84017  -0.81052
 Alpha  occ. eigenvalues --   -0.78678  -0.73591  -0.71720  -0.70931  -0.69905
 Alpha  occ. eigenvalues --   -0.67804  -0.64483  -0.63357  -0.62294  -0.61125
 Alpha  occ. eigenvalues --   -0.59010  -0.58854  -0.57677  -0.56818  -0.56464
 Alpha  occ. eigenvalues --   -0.55423  -0.54299  -0.54016  -0.53155  -0.52506
 Alpha  occ. eigenvalues --   -0.51383  -0.51260  -0.51066  -0.50586  -0.49845
 Alpha  occ. eigenvalues --   -0.49141  -0.48483  -0.48047  -0.47252  -0.46825
 Alpha  occ. eigenvalues --   -0.46557  -0.45577  -0.44427  -0.43265  -0.42460
 Alpha  occ. eigenvalues --   -0.41804  -0.41125  -0.39263  -0.34904  -0.34731
 Alpha  occ. eigenvalues --   -0.33947  -0.31498  -0.29264  -0.26664
 Alpha virt. eigenvalues --   -0.02445   0.02706   0.03861   0.03975   0.04394
 Alpha virt. eigenvalues --    0.04658   0.04764   0.05530   0.06168   0.06490
 Alpha virt. eigenvalues --    0.06633   0.06929   0.07534   0.07933   0.08130

 Mulliken charges:
               1
     1  H    0.243960
     2  C    0.099487
     3  C    0.727448
     4  C    0.175305
     5  C   -0.249227
     6  C   -0.462294
     7  H   -0.209617
     8  C   -0.002260
     9  C   -0.257767
    10  H    0.214539
    11  C   -0.354512
    12  H    0.153612
    13  C    1.259110
    14  O   -0.382520
    15  C   -0.501150
    16  H    0.190251
    17  H    0.223446
    18  C   -0.126640
    19  C   -0.460929
    20  H    0.440773
    21  N    0.064982
    22  C   -0.123546
    23  O   -0.363182
    24  H    0.151015
    25  C   -0.767109
    26  C   -0.391914
    27  C   -0.386625
    28  H    0.237523
    29  C   -0.451243
    30  H    0.232933
    31  H    0.161788
    32  H    0.155711
    33  H    0.190902
    34  H    0.158815
    35  H    0.175625
    36  H    0.176155
    37  O   -0.129649
    38  C   -0.372996
    39  H    0.174046
    40  H    0.219090
    41  H    0.166666
 Sum of Mulliken charges =   0.00000

 Dipole moment (field-independent basis, Debye):
    X=              1.5505    Y=             -0.8539    Z=             -7.4296  Tot=              7.6376
 Quadrupole moment (field-independent basis, Debye-Ang):
   XX=           -122.8841   YY=           -124.6843   ZZ=            -57.9928
   XY=            -13.1548   XZ=             -5.0180   YZ=              0.6144

 Normal termination of Gaussian 09 at Thu Nov  2 11:16:26 2017.
