 Gaussian 09, Revision D.01,
 Gaussian 09:  ES64L-G09RevD.01 24-Apr-2013

 ------------------------------------------
 #p wb97xd/6-311++G** td=(nstates=2) nosymm
 ------------------------------------------

 -----
 Title
 -----
 Symbolic Z-matrix:
 Charge =  0 Multiplicity = 1

                          Input orientation:
 ---------------------------------------------------------------------
 Center     Atomic      Atomic             Coordinates (Angstroms)
 Number     Number       Type             X           Y           Z
 ---------------------------------------------------------------------
      1          6           0        0.189744   -9.571178   -8.241991
      2          6           0       -0.636792  -10.289435   -9.118195
      3          6           0        0.013504   -9.655770   -6.826624
      4          8           0        1.167363   -8.803650   -8.752750
      5          1           0       -0.474766  -10.184499  -10.188265
      6          6           0       -1.641140  -11.103179   -8.598058
      7          6           0       -1.000965  -10.516251   -6.349474
      8          6           0        0.871866   -8.849893   -5.956409
      9          1           0        1.602836   -8.363690   -7.885818
     10          6           0       -1.821192  -11.220732   -7.202386
     11          8           0       -2.494182  -11.833311   -9.354722
     12          1           0       -1.136191  -10.657855   -5.279104
     13          6           0        0.704025   -8.882446   -4.524987
     14          8           0        1.773923   -8.105111   -6.493532
     15          1           0       -2.606481  -11.874941   -6.827160
     16          6           0       -2.293430  -11.863228  -10.773673
     17          1           0       -0.079497   -9.517814   -4.118344
     18          6           0        1.495260   -8.158636   -3.676327
     19          1           0       -1.290661  -12.259180  -11.004060
     20          1           0       -3.063401  -12.534014  -11.165992
     21          1           0       -2.410289  -10.857597  -11.205208
     22          1           0        2.272707   -7.534276   -4.126876
     23          6           0        1.405285   -8.129716   -2.248113
     24          6           0        0.456343   -8.878138   -1.511143
     25          6           0        2.283221   -7.308643   -1.504971
     26          1           0       -0.234381   -9.536955   -2.035475
     27          6           0        0.374104   -8.805575   -0.139636
     28          6           0        2.215664   -7.217871   -0.129864
     29          1           0        3.041171   -6.734380   -2.037230
     30          1           0       -0.378607   -9.397676    0.375433
     31          6           0        1.257455   -7.970862    0.600810
     32          1           0        2.909922   -6.561218    0.390749
     33          7           0        1.194401   -7.907231    1.956155
     34          6           0        0.232100   -8.716015    2.686402
     35          6           0        2.079430   -7.009747    2.679249
     36          1           0        0.307209   -9.776998    2.405837
     37          1           0        0.442533   -8.634185    3.755638
     38          1           0       -0.800972   -8.377405    2.502193
     39          1           0        1.935914   -5.966338    2.357672
     40          1           0        1.859835   -7.073688    3.749710
     41          1           0        3.137164   -7.276819    2.521281
     42          1           0        0.539269   -0.757276   -1.518015
     43          6           0        1.316716   -1.381636   -1.968554
     44          6           0        1.406691   -1.352716   -3.396768
     45          6           0        2.107951   -2.105446   -1.119894
     46          6           0        0.528755   -0.531643   -4.139920
     47          6           0        2.355633   -2.101138   -4.133738
     48          1           0        2.891473   -2.740814   -1.526547
     49          6           0        1.940107   -2.072893    0.311518
     50          6           0        0.596312   -0.440871   -5.515017
     51          1           0       -0.229195    0.042620   -3.607661
     52          6           0        2.437872   -2.028575   -5.505255
     53          1           0        3.046357   -2.759955   -3.609406
     54          6           0        2.798479   -2.878770    1.181744
     55          8           0        1.038050   -1.328111    0.848651
     56          6           0        1.554518   -1.193862   -6.245691
     57          1           0       -0.097949    0.215782   -6.035640
     58          1           0        3.190590   -2.620676   -6.020314
     59          6           0        2.622229   -2.794178    2.597110
     60          6           0        3.812938   -3.739251    0.704584
     61          1           0        1.209147   -1.586690    2.240938
     62          7           0        1.617571   -1.130231   -7.601046
     63          6           0        3.448765   -3.512435    3.473315
     64          8           0        1.644609   -2.026650    3.107859
     65          1           0        3.948167   -3.880855   -0.365788
     66          6           0        4.633175   -4.443732    1.557505
     67          6           0        2.579873   -1.939015   -8.331282
     68          6           0        0.732543   -0.232747   -8.324129
     69          1           0        3.286739   -3.407499    4.543375
     70          6           0        4.453123   -4.326179    2.953178
     71          1           0        5.418454   -5.097941    1.182270
     72          1           0        2.504764   -2.999998   -8.050717
     73          1           0        2.369440   -1.857185   -9.400518
     74          1           0        3.612955   -1.600405   -8.147074
     75          1           0        0.952148   -0.296688   -9.394601
     76          1           0       -0.325191   -0.499819   -8.166162
     77          1           0        0.876069    0.810662   -8.002562
     78          8           0        5.306155   -5.056311    3.709831
     79          6           0        5.105413   -5.086228    5.128793
     80          1           0        4.102643   -5.482180    5.359169
     81          1           0        5.875374   -5.757014    5.521101
     82          1           0        5.222262   -4.080597    5.560317
 ---------------------------------------------------------------------

 SCF Done:  E(RwB97XD) =  -1955.38356105     A.U. after   48 cycles

 Excitation energies and oscillator strengths:

 Excited state symmetry could not be determined.
 Excited State   1:      Singlet-?Sym    3.2248 eV  384.47 nm  f=0.1683  <S**2>=0.000
     157 -> 159        0.46303
     158 -> 160        0.47012
 This state for optimization and/or second-order correction.
 Total Energy, E(TD-HF/TD-KS) =  -1955.26505084
 Copying the excited state density for this state as the 1-particle RhoCI density.

 Excited state symmetry could not be determined.
 Excited State   2:      Singlet-?Sym    3.3844 eV  366.34 nm  f=2.3469  <S**2>=0.000
     156 -> 160        0.10400
     157 -> 159        0.46988
     158 -> 160       -0.46719

 Alpha  occ. eigenvalues --  -19.29726 -19.28849 -19.24701 -19.24107 -19.23383
 Alpha  occ. eigenvalues --  -19.22936 -14.47275 -14.46896 -10.38185 -10.37709
 Alpha  occ. eigenvalues --  -10.37062 -10.36517 -10.36212 -10.35759 -10.35304
 Alpha  occ. eigenvalues --  -10.34938 -10.34593 -10.34459 -10.33105 -10.32911
 Alpha  occ. eigenvalues --  -10.32883 -10.32271 -10.31511 -10.31184 -10.31112
 Alpha  occ. eigenvalues --  -10.30360 -10.30334 -10.30242 -10.30107 -10.30064
 Alpha  occ. eigenvalues --  -10.29701 -10.29646 -10.29428 -10.29375 -10.29268
 Alpha  occ. eigenvalues --  -10.29217 -10.28966 -10.28939 -10.28927 -10.28796
 Alpha  occ. eigenvalues --  -10.28762 -10.28434 -10.28087 -10.28071  -1.18822
 Alpha  occ. eigenvalues --   -1.17944  -1.15348  -1.14809  -1.11238  -1.10746
 Alpha  occ. eigenvalues --   -1.07590  -1.07210  -0.96780  -0.96477  -0.96350
 Alpha  occ. eigenvalues --   -0.95512  -0.90837  -0.90476  -0.88003  -0.87323
 Alpha  occ. eigenvalues --   -0.86663  -0.86343  -0.85437  -0.84927  -0.84586
 Alpha  occ. eigenvalues --   -0.84506  -0.83627  -0.83218  -0.81725  -0.80990
 Alpha  occ. eigenvalues --   -0.78665  -0.78234  -0.73816  -0.73299  -0.71838
 Alpha  occ. eigenvalues --   -0.71340  -0.71287  -0.70809  -0.70515  -0.69848
 Alpha  occ. eigenvalues --   -0.67793  -0.67414  -0.64691  -0.64191  -0.63311
 Alpha  occ. eigenvalues --   -0.62886  -0.62859  -0.62263  -0.61602  -0.60991
 Alpha  occ. eigenvalues --   -0.59533  -0.58873  -0.58782  -0.58427  -0.57440
 Alpha  occ. eigenvalues --   -0.57238  -0.57191  -0.56838  -0.56648  -0.56529
 Alpha  occ. eigenvalues --   -0.55293  -0.54942  -0.54602  -0.54405  -0.54008
 Alpha  occ. eigenvalues --   -0.53873  -0.53675  -0.53126  -0.52232  -0.52118
 Alpha  occ. eigenvalues --   -0.51671  -0.51409  -0.51110  -0.51106  -0.50901
 Alpha  occ. eigenvalues --   -0.50856  -0.50490  -0.50348  -0.49947  -0.49553
 Alpha  occ. eigenvalues --   -0.49371  -0.49029  -0.48173  -0.48011  -0.47914
 Alpha  occ. eigenvalues --   -0.47733  -0.47577  -0.47212  -0.46935  -0.46894
 Alpha  occ. eigenvalues --   -0.46525  -0.46443  -0.45631  -0.45288  -0.45161
 Alpha  occ. eigenvalues --   -0.44487  -0.44021  -0.43308  -0.42758  -0.42141
 Alpha  occ. eigenvalues --   -0.42133  -0.41748  -0.40972  -0.40646  -0.40048
 Alpha  occ. eigenvalues --   -0.39307  -0.34832  -0.34488  -0.34483  -0.34438
 Alpha  occ. eigenvalues --   -0.34222  -0.33967  -0.32387  -0.31554  -0.29995
 Alpha  occ. eigenvalues --   -0.29236  -0.26579  -0.26169
 Alpha virt. eigenvalues --   -0.02708  -0.02277   0.03072   0.03252   0.03475
 Alpha virt. eigenvalues --    0.03971   0.04070   0.04242   0.04356   0.04824
 Alpha virt. eigenvalues --    0.04887   0.05016   0.05179   0.05513   0.05996

 Mulliken charges:
               1
     1  C   -0.041179
     2  C   -0.113067
     3  C    1.477571
     4  O   -0.362415
     5  H    0.234761
     6  C   -0.565612
     7  C   -0.632199
     8  C   -0.149812
     9  H    0.435291
    10  C   -0.772919
    11  O   -0.127080
    12  H    0.148416
    13  C    0.165369
    14  O   -0.359130
    15  H    0.236100
    16  C   -0.374815
    17  H   -0.195537
    18  C    0.013492
    19  H    0.173749
    20  H    0.219879
    21  H    0.165598
    22  H    0.241260
    23  C    0.873600
    24  C   -0.580680
    25  C   -0.069994
    26  H    0.148019
    27  C   -0.624198
    28  C    0.150052
    29  H    0.214398
    30  H    0.231381
    31  C   -0.551549
    32  H    0.070019
    33  N    0.223018
    34  C   -0.356711
    35  C   -0.658966
    36  H    0.158639
    37  H    0.161517
    38  H    0.187895
    39  H    0.239063
    40  H    0.145599
    41  H    0.232008
    42  H    0.248982
    43  C    0.099402
    44  C    0.798969
    45  C    0.283989
    46  C   -0.240990
    47  C   -0.536608
    48  H   -0.227237
    49  C   -0.186243
    50  C   -0.284407
    51  H    0.214011
    52  C   -0.351306
    53  H    0.110450
    54  C    0.860524
    55  O   -0.362082
    56  C   -0.532707
    57  H    0.191422
    58  H    0.242992
    59  C   -0.167143
    60  C   -0.359019
    61  H    0.420288
    62  N    0.074064
    63  C   -0.036821
    64  O   -0.320906
    65  H    0.191345
    66  C   -0.396123
    67  C   -0.396881
    68  C   -0.383493
    69  H    0.252041
    70  C   -0.611581
    71  H    0.251823
    72  H    0.167122
    73  H    0.158329
    74  H    0.189698
    75  H    0.161593
    76  H    0.174469
    77  H    0.174567
    78  O   -0.065043
    79  C   -0.367634
    80  H    0.162041
    81  H    0.213960
    82  H    0.173313
 Sum of Mulliken charges =   0.00000

 Dipole moment (field-independent basis, Debye):
    X=             -0.0777    Y=             -1.0161    Z=             -0.1801  Tot=              1.0349
 Quadrupole moment (field-independent basis, Debye-Ang):
   XX=           -254.4894   YY=           -245.2821   ZZ=           -200.3981
   XY=              9.7403   XZ=             18.9705   YZ=            -47.9914

 Normal termination of Gaussian 09 at Thu Nov  2 07:37:04 2017.
