 Gaussian 09, Revision D.01,
 Gaussian 09:  ES64L-G09RevD.01 24-Apr-2013

 ------------------------------------------
 #p wb97xd/6-311++G** td=(nstates=2) nosymm
 ------------------------------------------

 -----
 Title
 -----
 Symbolic Z-matrix:
 Charge =  0 Multiplicity = 1

                          Input orientation:
 ---------------------------------------------------------------------
 Center     Atomic      Atomic             Coordinates (Angstroms)
 Number     Number       Type             X           Y           Z
 ---------------------------------------------------------------------
      1          6           0        0.189744   -9.571178   -8.241991
      2          6           0       -0.636792  -10.289435   -9.118195
      3          6           0        0.013504   -9.655770   -6.826624
      4          8           0        1.167363   -8.803650   -8.752750
      5          1           0       -0.474766  -10.184499  -10.188265
      6          6           0       -1.641140  -11.103179   -8.598058
      7          6           0       -1.000965  -10.516251   -6.349474
      8          6           0        0.871866   -8.849893   -5.956409
      9          1           0        1.602836   -8.363690   -7.885818
     10          6           0       -1.821192  -11.220732   -7.202386
     11          8           0       -2.494182  -11.833311   -9.354722
     12          1           0       -1.136191  -10.657855   -5.279104
     13          6           0        0.704025   -8.882446   -4.524987
     14          8           0        1.773923   -8.105111   -6.493532
     15          1           0       -2.606481  -11.874941   -6.827160
     16          6           0       -2.293430  -11.863228  -10.773673
     17          1           0       -0.079497   -9.517814   -4.118344
     18          6           0        1.495260   -8.158636   -3.676327
     19          1           0       -1.290661  -12.259180  -11.004060
     20          1           0       -3.063401  -12.534014  -11.165992
     21          1           0       -2.410289  -10.857597  -11.205208
     22          1           0        2.272707   -7.534276   -4.126876
     23          6           0        1.405285   -8.129716   -2.248113
     24          6           0        0.456343   -8.878138   -1.511143
     25          6           0        2.283221   -7.308643   -1.504971
     26          1           0       -0.234381   -9.536955   -2.035475
     27          6           0        0.374104   -8.805575   -0.139636
     28          6           0        2.215664   -7.217871   -0.129864
     29          1           0        3.041171   -6.734380   -2.037230
     30          1           0       -0.378607   -9.397676    0.375433
     31          6           0        1.257455   -7.970862    0.600810
     32          1           0        2.909922   -6.561218    0.390749
     33          7           0        1.194401   -7.907231    1.956155
     34          6           0        0.232100   -8.716015    2.686402
     35          6           0        2.079430   -7.009747    2.679249
     36          1           0        0.307209   -9.776998    2.405837
     37          1           0        0.442533   -8.634185    3.755638
     38          1           0       -0.800972   -8.377405    2.502193
     39          1           0        1.935914   -5.966338    2.357672
     40          1           0        1.859835   -7.073688    3.749710
     41          1           0        3.137164   -7.276819    2.521281
 ---------------------------------------------------------------------

 SCF Done:  E(RwB97XD) =  -977.686184472     A.U. after   17 cycles

 Excitation energies and oscillator strengths:

 Excited state symmetry could not be determined.
 Excited State   1:      Singlet-?Sym    3.3585 eV  369.17 nm  f=1.3190  <S**2>=0.000
      74 -> 80        -0.10093
      78 -> 80        -0.11366
      78 -> 82        -0.11915
      79 -> 80         0.66826
 This state for optimization and/or second-order correction.
 Total Energy, E(TD-HF/TD-KS) =  -977.562762556
 Copying the excited state density for this state as the 1-particle RhoCI density.

 Excited state symmetry could not be determined.
 Excited State   2:      Singlet-?Sym    3.9343 eV  315.13 nm  f=0.0006  <S**2>=0.000
      76 -> 80        -0.66293
      76 -> 82        -0.13677

 Alpha  occ. eigenvalues --  -19.28790 -19.24001 -19.22960 -14.47596 -10.37759
 Alpha  occ. eigenvalues --  -10.36174 -10.35710 -10.35174 -10.34361 -10.33530
 Alpha  occ. eigenvalues --  -10.33483 -10.31341 -10.30545 -10.30480 -10.30247
 Alpha  occ. eigenvalues --  -10.29812 -10.29731 -10.29510 -10.28930 -10.28695
 Alpha  occ. eigenvalues --  -10.28072 -10.28001  -1.17883  -1.14743  -1.10709
 Alpha  occ. eigenvalues --   -1.07953  -0.96949  -0.95494  -0.90806  -0.87432
 Alpha  occ. eigenvalues --   -0.86943  -0.84849  -0.84530  -0.84017  -0.81052
 Alpha  occ. eigenvalues --   -0.78678  -0.73591  -0.71720  -0.70931  -0.69905
 Alpha  occ. eigenvalues --   -0.67804  -0.64483  -0.63357  -0.62294  -0.61125
 Alpha  occ. eigenvalues --   -0.59010  -0.58854  -0.57677  -0.56818  -0.56464
 Alpha  occ. eigenvalues --   -0.55423  -0.54299  -0.54016  -0.53155  -0.52506
 Alpha  occ. eigenvalues --   -0.51383  -0.51260  -0.51066  -0.50586  -0.49845
 Alpha  occ. eigenvalues --   -0.49142  -0.48483  -0.48047  -0.47252  -0.46825
 Alpha  occ. eigenvalues --   -0.46557  -0.45577  -0.44426  -0.43265  -0.42460
 Alpha  occ. eigenvalues --   -0.41804  -0.41125  -0.39263  -0.34904  -0.34731
 Alpha  occ. eigenvalues --   -0.33947  -0.31498  -0.29265  -0.26664
 Alpha virt. eigenvalues --   -0.02445   0.02706   0.03861   0.03975   0.04394
 Alpha virt. eigenvalues --    0.04658   0.04764   0.05530   0.06168   0.06490
 Alpha virt. eigenvalues --    0.06633   0.06929   0.07534   0.07933   0.08130

 Mulliken charges:
               1
     1  C   -0.126651
     2  C   -0.123533
     3  C    1.259114
     4  O   -0.363184
     5  H    0.237526
     6  C   -0.451248
     7  C   -0.460937
     8  C   -0.002252
     9  H    0.440773
    10  C   -0.767111
    11  O   -0.129650
    12  H    0.151014
    13  C    0.175315
    14  O   -0.382518
    15  H    0.232935
    16  C   -0.373002
    17  H   -0.209616
    18  C    0.099482
    19  H    0.174045
    20  H    0.219088
    21  H    0.166664
    22  H    0.243959
    23  C    0.727455
    24  C   -0.462300
    25  C   -0.249229
    26  H    0.153612
    27  C   -0.354499
    28  C   -0.257766
    29  H    0.214539
    30  H    0.223444
    31  C   -0.501157
    32  H    0.190249
    33  N    0.064981
    34  C   -0.391915
    35  C   -0.386629
    36  H    0.161788
    37  H    0.155711
    38  H    0.190905
    39  H    0.176155
    40  H    0.158817
    41  H    0.175626
 Sum of Mulliken charges =   0.00000

 Dipole moment (field-independent basis, Debye):
    X=             -1.5505    Y=             -0.8539    Z=              7.4297  Tot=              7.6377
 Quadrupole moment (field-independent basis, Debye-Ang):
   XX=           -131.6044   YY=           -113.1105   ZZ=           -141.8724
   XY=             21.2613   XZ=             24.6260   YZ=            -46.1461

 Normal termination of Gaussian 09 at Thu Nov  2 09:26:22 2017.
