 Gaussian 09, Revision D.01,
 Gaussian 09:  ES64L-G09RevD.01 24-Apr-2013

 ------------------------------------------
 #p wb97xd/6-311++G** td=(nstates=2) nosymm
 ------------------------------------------

 -----
 Title
 -----
 Symbolic Z-matrix:
 Charge =  0 Multiplicity = 1

                          Input orientation:
 ---------------------------------------------------------------------
 Center     Atomic      Atomic             Coordinates (Angstroms)
 Number     Number       Type             X           Y           Z
 ---------------------------------------------------------------------
      1          1           0        0.539269   -0.757276   -1.518015
      2          6           0        1.316716   -1.381636   -1.968554
      3          6           0        1.406691   -1.352716   -3.396768
      4          6           0        2.107951   -2.105446   -1.119894
      5          6           0        0.528755   -0.531643   -4.139920
      6          6           0        2.355633   -2.101138   -4.133738
      7          1           0        2.891473   -2.740814   -1.526547
      8          6           0        1.940107   -2.072893    0.311518
      9          6           0        0.596312   -0.440871   -5.515017
     10          1           0       -0.229195    0.042620   -3.607661
     11          6           0        2.437872   -2.028575   -5.505255
     12          1           0        3.046357   -2.759955   -3.609406
     13          6           0        2.798479   -2.878770    1.181744
     14          8           0        1.038050   -1.328111    0.848651
     15          6           0        1.554518   -1.193862   -6.245691
     16          1           0       -0.097949    0.215782   -6.035640
     17          1           0        3.190590   -2.620676   -6.020314
     18          6           0        2.622229   -2.794178    2.597110
     19          6           0        3.812938   -3.739251    0.704584
     20          1           0        1.209147   -1.586690    2.240938
     21          7           0        1.617571   -1.130231   -7.601046
     22          6           0        3.448765   -3.512435    3.473315
     23          8           0        1.644609   -2.026650    3.107859
     24          1           0        3.948167   -3.880855   -0.365788
     25          6           0        4.633175   -4.443732    1.557505
     26          6           0        2.579873   -1.939015   -8.331282
     27          6           0        0.732543   -0.232747   -8.324129
     28          1           0        3.286739   -3.407499    4.543375
     29          6           0        4.453123   -4.326179    2.953178
     30          1           0        5.418454   -5.097941    1.182270
     31          1           0        2.504764   -2.999998   -8.050717
     32          1           0        2.369440   -1.857185   -9.400518
     33          1           0        3.612955   -1.600405   -8.147074
     34          1           0        0.952148   -0.296688   -9.394601
     35          1           0       -0.325191   -0.499819   -8.166162
     36          1           0        0.876069    0.810662   -8.002562
     37          8           0        5.306155   -5.056311    3.709831
     38          6           0        5.105413   -5.086228    5.128793
     39          1           0        4.102643   -5.482180    5.359169
     40          1           0        5.875374   -5.757014    5.521101
     41          1           0        5.222262   -4.080597    5.560317
     42          6           0       -1.257452   -5.583138   -0.600811
     43          7           0       -1.194399   -5.646769   -1.956156
     44          6           0       -0.374111   -4.748425    0.139636
     45          6           0       -2.215671   -6.336129    0.129863
     46          6           0       -0.232107   -4.837984   -2.686402
     47          6           0       -2.079427   -6.544253   -2.679249
     48          1           0        0.378610   -4.156324   -0.375434
     49          6           0       -0.456340   -4.675862    1.511142
     50          1           0       -2.909919   -6.992782   -0.390750
     51          6           0       -2.283218   -6.245357    1.504970
     52          1           0       -0.307216   -3.777002   -2.405837
     53          1           0       -0.442540   -4.919815   -3.755638
     54          1           0        0.800975   -5.176595   -2.502194
     55          1           0       -1.935911   -7.587662   -2.357672
     56          1           0       -1.859832   -6.480312   -3.749711
     57          1           0       -3.137161   -6.277181   -2.521282
     58          6           0       -1.405282   -5.424284    2.248113
     59          1           0        0.234383   -4.017044    2.035475
     60          1           0       -3.041168   -6.819620    2.037230
     61          6           0       -1.495258   -5.395364    3.676326
     62          1           0       -2.272715   -6.019724    4.126875
     63          6           0       -0.704022   -4.671554    4.524986
     64          6           0       -0.871863   -4.704107    5.956408
     65          1           0        0.079500   -4.036186    4.118343
     66          6           0       -0.013501   -3.898230    6.826624
     67          8           0       -1.773920   -5.448889    6.493531
     68          6           0       -0.189741   -3.982822    8.241990
     69          6           0        1.000968   -3.037749    6.349474
     70          1           0       -1.602833   -5.190309    7.885818
     71          6           0        0.636785   -3.264565    9.118195
     72          8           0       -1.167361   -4.750350    8.752749
     73          6           0        1.821195   -2.333268    7.202395
     74          1           0        1.136193   -2.896145    5.279103
     75          1           0        0.474759   -3.369501   10.188265
     76          6           0        1.641143   -2.450821    8.598058
     77          1           0        2.606474   -1.679058    6.827160
     78          8           0        2.494175   -1.720689    9.354721
     79          6           0        2.293433   -1.690772   10.773673
     80          1           0        1.290663   -1.294820   11.004059
     81          1           0        3.063404   -1.019976   11.165991
     82          1           0        2.410292   -2.696403   11.205207
 ---------------------------------------------------------------------

 SCF Done:  E(RwB97XD) =  -1955.39259308     A.U. after   29 cycles

 Excitation energies and oscillator strengths:

 Excited state symmetry could not be determined.
 Excited State   1:      Singlet-?Sym    3.2722 eV  378.90 nm  f=0.1399  <S**2>=0.000
     155 -> 159       -0.11149
     157 -> 159        0.48372
     158 -> 159        0.13917
     158 -> 160        0.43503
 This state for optimization and/or second-order correction.
 Total Energy, E(TD-HF/TD-KS) =  -1955.27234109
 Copying the excited state density for this state as the 1-particle RhoCI density.

 Excited state symmetry could not be determined.
 Excited State   2:      Singlet-?Sym    3.3616 eV  368.83 nm  f=2.3050  <S**2>=0.000
     157 -> 159       -0.46188
     158 -> 159        0.11825
     158 -> 160        0.47121

 Alpha  occ. eigenvalues --  -19.29169 -19.28039 -19.25469 -19.24082 -19.23060
 Alpha  occ. eigenvalues --  -19.21836 -14.48539 -14.46392 -10.38846 -10.36914
 Alpha  occ. eigenvalues --  -10.36743 -10.36548 -10.36199 -10.35242 -10.34708
 Alpha  occ. eigenvalues --  -10.34342 -10.34263 -10.34250 -10.33808 -10.33763
 Alpha  occ. eigenvalues --  -10.32606 -10.32521 -10.32308 -10.31645 -10.31530
 Alpha  occ. eigenvalues --  -10.31106 -10.30905 -10.30774 -10.30505 -10.29952
 Alpha  occ. eigenvalues --  -10.29936 -10.29859 -10.29151 -10.28871 -10.28839
 Alpha  occ. eigenvalues --  -10.28782 -10.28731 -10.28378 -10.28225 -10.28110
 Alpha  occ. eigenvalues --  -10.27782 -10.27114 -10.27091 -10.26978  -1.18243
 Alpha  occ. eigenvalues --   -1.17134  -1.16080  -1.13734  -1.11970  -1.09656
 Alpha  occ. eigenvalues --   -1.08873  -1.06758  -0.98023  -0.96350  -0.95513
 Alpha  occ. eigenvalues --   -0.94412  -0.91923  -0.89415  -0.88297  -0.87924
 Alpha  occ. eigenvalues --   -0.86322  -0.85783  -0.85576  -0.85328  -0.84899
 Alpha  occ. eigenvalues --   -0.83642  -0.83497  -0.82819  -0.81591  -0.80101
 Alpha  occ. eigenvalues --   -0.79565  -0.77473  -0.74537  -0.72720  -0.72395
 Alpha  occ. eigenvalues --   -0.71770  -0.70813  -0.70333  -0.69780  -0.68862
 Alpha  occ. eigenvalues --   -0.68790  -0.66516  -0.65496  -0.64315  -0.63248
 Alpha  occ. eigenvalues --   -0.62904  -0.62155  -0.62010  -0.61292  -0.59997
 Alpha  occ. eigenvalues --   -0.59907  -0.59755  -0.58531  -0.57901  -0.57811
 Alpha  occ. eigenvalues --   -0.57626  -0.56618  -0.56592  -0.56396  -0.55825
 Alpha  occ. eigenvalues --   -0.55692  -0.55311  -0.54924  -0.54159  -0.53968
 Alpha  occ. eigenvalues --   -0.53493  -0.53179  -0.52818  -0.52776  -0.52259
 Alpha  occ. eigenvalues --   -0.52154  -0.52012  -0.51359  -0.50724  -0.50479
 Alpha  occ. eigenvalues --   -0.50398  -0.50055  -0.49962  -0.49944  -0.49633
 Alpha  occ. eigenvalues --   -0.49329  -0.49051  -0.48663  -0.48123  -0.48064
 Alpha  occ. eigenvalues --   -0.47812  -0.47491  -0.47265  -0.46768  -0.46709
 Alpha  occ. eigenvalues --   -0.46102  -0.45576  -0.45533  -0.45088  -0.44078
 Alpha  occ. eigenvalues --   -0.44034  -0.43548  -0.43397  -0.42560  -0.42312
 Alpha  occ. eigenvalues --   -0.42139  -0.41098  -0.40577  -0.40028  -0.39821
 Alpha  occ. eigenvalues --   -0.38257  -0.35971  -0.35790  -0.35101  -0.33624
 Alpha  occ. eigenvalues --   -0.33230  -0.32842  -0.32257  -0.30566  -0.30248
 Alpha  occ. eigenvalues --   -0.28245  -0.27711  -0.25375
 Alpha virt. eigenvalues --   -0.03642  -0.01195   0.01908   0.02771   0.03164
 Alpha virt. eigenvalues --    0.03513   0.03738   0.04022   0.04498   0.04804
 Alpha virt. eigenvalues --    0.05021   0.05171   0.05414   0.05716   0.05795

 Mulliken charges:
               1
     1  H    0.266171
     2  C   -0.138955
     3  C    0.533327
     4  C   -0.162364
     5  C   -0.203158
     6  C   -0.048402
     7  H    0.015130
     8  C   -0.405770
     9  C   -0.398075
    10  H    0.221730
    11  C   -0.224624
    12  H    0.168475
    13  C    0.529071
    14  O   -0.256655
    15  C   -0.522621
    16  H    0.201034
    17  H    0.215669
    18  C    0.390009
    19  C   -0.114115
    20  H    0.464173
    21  N    0.078199
    22  C    0.579458
    23  O   -0.310110
    24  H    0.175122
    25  C   -0.569773
    26  C   -0.380719
    27  C   -0.380768
    28  H    0.081958
    29  C   -1.105500
    30  H    0.241061
    31  H    0.161471
    32  H    0.163316
    33  H    0.193972
    34  H    0.161148
    35  H    0.176524
    36  H    0.180918
    37  O   -0.102841
    38  C   -0.412922
    39  H    0.195093
    40  H    0.227827
    41  H    0.188544
    42  C    0.121796
    43  N    0.193206
    44  C   -0.127597
    45  C   -0.474588
    46  C   -0.674545
    47  C   -0.334634
    48  H    0.181770
    49  C   -0.159667
    50  H    0.174877
    51  C   -0.432654
    52  H    0.261499
    53  H    0.150494
    54  H    0.224593
    55  H    0.173328
    56  H    0.164023
    57  H    0.171731
    58  C    0.385310
    59  H   -0.269371
    60  H    0.210219
    61  C   -0.045855
    62  H    0.261908
    63  C    0.109642
    64  C   -0.137579
    65  H   -0.085763
    66  C    1.063091
    67  O   -0.388631
    68  C   -0.277291
    69  C   -0.295629
    70  H    0.445762
    71  C   -0.035448
    72  O   -0.371504
    73  C   -0.546341
    74  H    0.028211
    75  H    0.236245
    76  C   -0.300859
    77  H    0.264882
    78  O   -0.125614
    79  C   -0.371545
    80  H    0.178080
    81  H    0.216149
    82  H    0.166273
 Sum of Mulliken charges =   0.00000

 Dipole moment (field-independent basis, Debye):
    X=              3.8070    Y=              0.7876    Z=            -15.3409  Tot=             15.8259
 Quadrupole moment (field-independent basis, Debye-Ang):
   XX=           -252.6447   YY=           -266.3587   ZZ=           -204.7127
   XY=            -17.0117   XZ=             19.4527   YZ=             55.2381

 Normal termination of Gaussian 09 at Fri Nov  3 02:06:22 2017.
