 Gaussian 09, Revision D.01,
 Gaussian 09:  ES64L-G09RevD.01 24-Apr-2013

 ----------------------------------
 #p wb97xd 6-31G* td=(add=2) nosymm
 ----------------------------------

 ---------------------------
 unrelaxed crystal structure
 ---------------------------
 Symbolic Z-matrix:
 Charge =  0 Multiplicity = 1

                          Input orientation:
 ---------------------------------------------------------------------
 Center     Atomic      Atomic             Coordinates (Angstroms)
 Number     Number       Type             X           Y           Z
 ---------------------------------------------------------------------
      1          6           0        9.467207   12.944440    3.544461
      2          6           0        8.155126   12.590967    4.158769
      3          6           0       10.336436   13.815495    4.226761
      4          6           0        9.896170   12.433378    2.312501
      5          6           0        7.208229   11.814171    3.443876
      6          8           0        7.912238   13.023024    5.324355
      7          6           0       11.584305   14.131727    3.689188
      8          8           0        9.992177   14.368953    5.406054
      9          1           0        9.268451   14.068397    5.647697
     10          6           0       11.127325   12.763601    1.787772
     11          1           0        9.338838   11.859197    1.839036
     12          6           0        6.031561   11.456386    4.047283
     13          1           0        7.385039   11.548857    2.569686
     14          6           0       11.968414   13.607515    2.480540
     15          1           0       12.157612   14.699596    4.151861
     16          1           0       11.390398   12.416757    0.965926
     17          1           0        5.929588   11.721384    4.933236
     18          7           0        5.025329   10.781738    3.526114
     19          1           0       12.801178   13.823280    2.127195
     20          6           0        5.036006   10.332850    2.151694
     21          6           0        3.843738   10.458879    4.326484
     22          1           0        5.401543   11.022857    1.592968
     23          1           0        4.138578   10.136021    1.872493
     24          1           0        5.574460    9.541640    2.077549
     25          1           0        3.957830   10.798780    5.217078
     26          1           0        3.729849    9.505872    4.359076
     27          1           0        3.067854   10.860848    3.928457
     28          6           0        4.585503    8.095561    7.248003
     29          6           0        5.897584    8.449033    6.633697
     30          6           0        3.716274    7.224505    6.565704
     31          6           0        4.156540    8.606623    8.479963
     32          6           0        6.844481    9.225830    7.348589
     33          8           0        6.140471    8.016976    5.468110
     34          6           0        2.468405    6.908274    7.103277
     35          8           0        4.060533    6.671048    5.386412
     36          1           0        4.784259    6.971604    5.144768
     37          6           0        2.925384    8.276400    9.004693
     38          1           0        4.713872    9.180804    8.953429
     39          6           0        8.021149    9.583615    6.745183
     40          1           0        6.667671    9.491144    8.222779
     41          6           0        2.084295    7.432486    8.311925
     42          1           0        1.895098    6.340404    6.640604
     43          1           0        2.662313    8.623244    9.826539
     44          1           0        8.123121    9.318617    5.859229
     45          7           0        9.027381   10.258263    7.266351
     46          1           0        1.251532    7.216720    8.665271
     47          6           0        9.016705   10.707151    8.640771
     48          6           0       10.208972   10.581121    6.465982
     49          1           0        8.478251   11.498361    8.714915
     50          1           0        9.914132   10.903980    8.919972
     51          1           0        8.651167   10.017144    9.199497
     52          1           0       10.094880   10.241220    5.575387
     53          1           0       10.984856   10.179152    6.864008
     54          1           0       10.322862   11.534128    6.433388
 ---------------------------------------------------------------------

 SCF Done:  E(RwB97XD) =  -1263.48124244     A.U. after   16 cycles

 Excitation energies and oscillator strengths:

 Excited state symmetry could not be determined.
 Excited State   1:      Singlet-?Sym    4.1212 eV  300.84 nm  f=0.0000  <S**2>=0.000
      97 ->104        -0.46292
      98 ->103         0.47533
     101 ->103         0.11163
     102 ->104        -0.12213
 This state for optimization and/or second-order correction.
 Total Energy, E(TD-HF/TD-KS) =  -1263.32979077
 Copying the excited state density for this state as the 1-particle RhoCI density.

 Excited state symmetry could not be determined.
 Excited State   2:      Singlet-?Sym    4.1249 eV  300.58 nm  f=0.0104  <S**2>=0.000
      97 ->103         0.48506
      98 ->104        -0.47238

 Excited state symmetry could not be determined.
 Excited State   3:      Singlet-?Sym    4.2935 eV  288.77 nm  f=0.0000  <S**2>=0.000
      97 ->104        -0.11160
      98 ->103         0.11914
     101 ->103        -0.47377
     102 ->104         0.45629

 Excited state symmetry could not be determined.
 Excited State   4:      Singlet-?Sym    4.4456 eV  278.89 nm  f=1.1132  <S**2>=0.000
      99 ->104        -0.19712
     100 ->103        -0.21175
     101 ->104         0.41056
     102 ->103        -0.45456

 Alpha  occ. eigenvalues --  -19.26200 -19.26200 -19.22290 -19.22290 -14.49660
 Alpha  occ. eigenvalues --  -14.49660 -10.36571 -10.36571 -10.35680 -10.35680
 Alpha  occ. eigenvalues --  -10.33077 -10.33077 -10.29691 -10.29691 -10.29544
 Alpha  occ. eigenvalues --  -10.29544 -10.29474 -10.29474 -10.28472 -10.28472
 Alpha  occ. eigenvalues --  -10.28046 -10.28046 -10.27098 -10.27098 -10.26957
 Alpha  occ. eigenvalues --  -10.26957 -10.25276 -10.25276  -1.17946  -1.17946
 Alpha  occ. eigenvalues --   -1.09371  -1.09306  -1.07821  -1.07767  -0.95710
 Alpha  occ. eigenvalues --   -0.95709  -0.89255  -0.89178  -0.87308  -0.87296
 Alpha  occ. eigenvalues --   -0.86581  -0.86517  -0.84893  -0.84881  -0.80986
 Alpha  occ. eigenvalues --   -0.80931  -0.74424  -0.74393  -0.71855  -0.71832
 Alpha  occ. eigenvalues --   -0.70467  -0.70423  -0.66591  -0.66535  -0.64030
 Alpha  occ. eigenvalues --   -0.63978  -0.62638  -0.62601  -0.60012  -0.59983
 Alpha  occ. eigenvalues --   -0.59271  -0.59175  -0.58018  -0.57957  -0.55047
 Alpha  occ. eigenvalues --   -0.55043  -0.54026  -0.54006  -0.53594  -0.53552
 Alpha  occ. eigenvalues --   -0.53186  -0.53171  -0.51563  -0.51538  -0.50677
 Alpha  occ. eigenvalues --   -0.50607  -0.50240  -0.50048  -0.49187  -0.49131
 Alpha  occ. eigenvalues --   -0.47289  -0.47250  -0.46733  -0.46697  -0.45599
 Alpha  occ. eigenvalues --   -0.45054  -0.44922  -0.44899  -0.42190  -0.42170
 Alpha  occ. eigenvalues --   -0.41720  -0.41708  -0.40645  -0.40465  -0.32473
 Alpha  occ. eigenvalues --   -0.32456  -0.31488  -0.31484  -0.29163  -0.29099
 Alpha  occ. eigenvalues --   -0.27233  -0.27067
 Alpha virt. eigenvalues --    0.02295   0.02500   0.08170   0.08332   0.10336
 Alpha virt. eigenvalues --    0.10438   0.17992   0.18436   0.18836   0.19220
 Alpha virt. eigenvalues --    0.21177   0.21339   0.22108   0.23041   0.23182

 Mulliken charges:
               1
     1  C   -0.017879
     2  C    0.420406
     3  C    0.247147
     4  C   -0.182248
     5  C   -0.311932
     6  O   -0.628101
     7  C   -0.171859
     8  O   -0.610233
     9  H    0.415811
    10  C   -0.153087
    11  H    0.143724
    12  C    0.174899
    13  H    0.123097
    14  C   -0.129095
    15  H    0.151319
    16  H    0.140778
    17  H    0.183458
    18  N   -0.461224
    19  H    0.149511
    20  C   -0.351389
    21  C   -0.352147
    22  H    0.200127
    23  H    0.193594
    24  H    0.216190
    25  H    0.203271
    26  H    0.213714
    27  H    0.192148
    28  C   -0.017879
    29  C    0.420406
    30  C    0.247148
    31  C   -0.182249
    32  C   -0.311931
    33  O   -0.628102
    34  C   -0.171860
    35  O   -0.610233
    36  H    0.415811
    37  C   -0.153087
    38  H    0.143724
    39  C    0.174899
    40  H    0.123097
    41  C   -0.129094
    42  H    0.151319
    43  H    0.140778
    44  H    0.183458
    45  N   -0.461223
    46  H    0.149511
    47  C   -0.351389
    48  C   -0.352147
    49  H    0.216190
    50  H    0.193594
    51  H    0.200127
    52  H    0.203271
    53  H    0.192148
    54  H    0.213714
 Sum of Mulliken charges =   0.00000

 Dipole moment (field-independent basis, Debye):
    X=              0.0000    Y=              0.0000    Z=              0.0000  Tot=              0.0000
 Quadrupole moment (field-independent basis, Debye-Ang):
   XX=           -137.4031   YY=           -190.1181   ZZ=           -135.1158
   XY=             -7.4671   XZ=              3.1011   YZ=              0.5882

 Normal termination of Gaussian 09 at Thu Sep 28 11:15:27 2017.
