 Gaussian 09, Revision D.01,
 Gaussian 09:  ES64L-G09RevD.01 24-Apr-2013

 ----------------------------------------------------------------------
 #p wb97xd 6-31G* td=(nstates=4) nosymm density=(transition=1) pop=Save
 NTO
 ----------------------------------------------------------------------

 -----------------
 unrelaxed crystal
 -----------------
 Symbolic Z-matrix:
 Charge =  0 Multiplicity = 1

                          Input orientation:
 ---------------------------------------------------------------------
 Center     Atomic      Atomic             Coordinates (Angstroms)
 Number     Number       Type             X           Y           Z
 ---------------------------------------------------------------------
      1          6           0        4.585503    8.095561    7.248003
      2          6           0        5.897584    8.449033    6.633697
      3          6           0        3.716274    7.224505    6.565704
      4          6           0        4.156540    8.606623    8.479963
      5          6           0        6.844481    9.225830    7.348589
      6          8           0        6.140471    8.016976    5.468110
      7          6           0        2.468405    6.908274    7.103277
      8          8           0        4.060533    6.671048    5.386412
      9          1           0        4.784259    6.971604    5.144768
     10          6           0        2.925384    8.276400    9.004693
     11          1           0        4.713872    9.180804    8.953429
     12          6           0        8.021149    9.583615    6.745183
     13          1           0        6.667671    9.491144    8.222779
     14          6           0        2.084295    7.432486    8.311925
     15          1           0        1.895098    6.340404    6.640604
     16          1           0        2.662313    8.623244    9.826539
     17          1           0        8.123121    9.318617    5.859229
     18          7           0        9.027381   10.258263    7.266351
     19          1           0        1.251532    7.216720    8.665271
     20          6           0        9.016705   10.707151    8.640771
     21          6           0       10.208972   10.581121    6.465982
     22          1           0        8.478251   11.498361    8.714915
     23          1           0        9.914132   10.903980    8.919972
     24          1           0        8.651167   10.017144    9.199497
     25          1           0       10.094880   10.241220    5.575387
     26          1           0       10.984856   10.179152    6.864008
     27          1           0       10.322862   11.534128    6.433388
 ---------------------------------------------------------------------

 SCF Done:  E(RwB97XD) =  -631.728589681     A.U. after   17 cycles

 Excitation energies and oscillator strengths:

 Excited state symmetry could not be determined.
 Excited State   1:      Singlet-?Sym    4.0542 eV  305.81 nm  f=0.0029  <S**2>=0.000
      49 -> 52         0.67831
      49 -> 56         0.12861
 This state for optimization and/or second-order correction.
 Total Energy, E(TD-HF/TD-KS) =  -631.579599530
 Copying the excited state density for this state as the 1-particle RhoCI density.

 Excited state symmetry could not be determined.
 Excited State   2:      Singlet-?Sym    4.4123 eV  280.99 nm  f=0.5379  <S**2>=0.000
      50 -> 52         0.20074
      50 -> 53         0.10135
      51 -> 52         0.64648

 Excited state symmetry could not be determined.
 Excited State   3:      Singlet-?Sym    4.7943 eV  258.61 nm  f=0.1670  <S**2>=0.000
      48 -> 54        -0.11784
      50 -> 52         0.62904
      51 -> 52        -0.22629
      51 -> 53         0.12974

 Excited state symmetry could not be determined.
 Excited State   4:      Singlet-?Sym    5.5739 eV  222.44 nm  f=0.0497  <S**2>=0.000
      48 -> 52         0.57130
      48 -> 54         0.12043
      50 -> 52         0.15666
      50 -> 53        -0.26500
      51 -> 53        -0.19932
      51 -> 54         0.10102

 Alpha  occ. eigenvalues --    0.00000   0.00000   0.00000   0.00000   0.00000
 Alpha  occ. eigenvalues --    0.00000   0.00000   0.00000   0.00000   0.00000
 Alpha  occ. eigenvalues --    0.00000   0.00000   0.00000   0.00000   0.00000
 Alpha  occ. eigenvalues --    0.00000   0.00000   0.00000   0.00000   0.00000
 Alpha  occ. eigenvalues --    0.00000   0.00000   0.00000   0.00000   0.00000
 Alpha  occ. eigenvalues --    0.00000   0.00000   0.00000   0.00000   0.00000
 Alpha  occ. eigenvalues --    0.00000   0.00000   0.00000   0.00000   0.00000
 Alpha  occ. eigenvalues --    0.00000   0.00001   0.00001   0.00001   0.00001
 Alpha  occ. eigenvalues --    0.00001   0.00002   0.00002   0.00003   0.00004
 Alpha  occ. eigenvalues --    0.00005   0.00007   0.00016   0.00041   0.00194
 Alpha  occ. eigenvalues --    0.99844
 Alpha virt. eigenvalues --    0.99844   0.00194   0.00041   0.00016   0.00007
 Alpha virt. eigenvalues --    0.00005   0.00004   0.00003   0.00002   0.00002
 Alpha virt. eigenvalues --    0.00001   0.00001   0.00001   0.00001   0.00001

 Mulliken charges:
               1
     1  C    5.994047
     2  C    6.002628
     3  C    6.003236
     4  C    6.000110
     5  C    6.001111
     6  O    8.013390
     7  C    6.001518
     8  O    8.002641
     9  H    0.998826
    10  C    6.000094
    11  H    1.001441
    12  C    5.993982
    13  H    1.002603
    14  C    6.000988
    15  H    1.001319
    16  H    1.001417
    17  H    0.996994
    18  N    6.995336
    19  H    1.001564
    20  C    6.001370
    21  C    6.001399
    22  H    0.996426
    23  H    0.998456
    24  H    0.996880
    25  H    0.997354
    26  H    0.996824
    27  H    0.998045
 Sum of Mulliken charges = 102.00000

 Dipole moment (field-independent basis, Debye):
    X=             -0.5192    Y=             -0.3215    Z=             -0.1002  Tot=              0.6189
 Quadrupole moment (field-independent basis, Debye-Ang):
   XX=             -6.7174   YY=             -5.9482   ZZ=             -1.3383
   XY=             -7.0817   XZ=             -4.3468   YZ=             -2.9837

 Normal termination of Gaussian 09 at Thu Sep 28 11:09:38 2017.
