 Gaussian 09, Revision D.01,
 Gaussian 09:  ES64L-G09RevD.01 24-Apr-2013

 ----------------------------------------------------------------------
 #p wb97xd 6-31G* td=(nstates=4) nosymm density=(transition=1) pop=Save
 NTO
 ----------------------------------------------------------------------

 -----
 title
 -----
 Symbolic Z-matrix:
 Charge =  0 Multiplicity = 1

                          Input orientation:
 ---------------------------------------------------------------------
 Center     Atomic      Atomic             Coordinates (Angstroms)
 Number     Number       Type             X           Y           Z
 ---------------------------------------------------------------------
      1          6           0        9.467207    2.424439    3.544461
      2          6           0        8.155126    2.070967    4.158769
      3          6           0       10.336436    3.295495    4.226761
      4          6           0        9.896170    1.913378    2.312501
      5          6           0        7.208229    1.294170    3.443876
      6          8           0        7.912238    2.503024    5.324355
      7          6           0       11.584305    3.611727    3.689188
      8          8           0        9.992177    3.848953    5.406054
      9          1           0        9.268451    3.548396    5.647697
     10          6           0       11.127325    2.243600    1.787772
     11          1           0        9.338838    1.339196    1.839036
     12          6           0        6.031561    0.936385    4.047283
     13          1           0        7.385039    1.028856    2.569686
     14          6           0       11.968414    3.087515    2.480540
     15          1           0       12.157612    4.179596    4.151861
     16          1           0       11.390398    1.896756    0.965926
     17          1           0        5.929588    1.201384    4.933236
     18          7           0        5.025329    0.261738    3.526114
     19          1           0       12.801178    3.303280    2.127195
     20          6           0        5.036006   -0.187151    2.151694
     21          6           0        3.843738   -0.061121    4.326484
     22          1           0        5.401543    0.502856    1.592968
     23          1           0        4.138578   -0.383980    1.872493
     24          1           0        5.574460   -0.978360    2.077549
     25          1           0        3.957830    0.278780    5.217078
     26          1           0        3.729849   -1.014129    4.359076
     27          1           0        3.067854    0.340848    3.928457
 ---------------------------------------------------------------------

 SCF Done:  E(RwB97XD) =  -631.728589776     A.U. after   17 cycles

 Excitation energies and oscillator strengths:

 Excited state symmetry could not be determined.
 Excited State   1:      Singlet-?Sym    4.0542 eV  305.81 nm  f=0.0029  <S**2>=0.000
      49 -> 52         0.67831
      49 -> 56         0.12861
 This state for optimization and/or second-order correction.
 Total Energy, E(TD-HF/TD-KS) =  -631.579599444
 Copying the excited state density for this state as the 1-particle RhoCI density.

 Excited state symmetry could not be determined.
 Excited State   2:      Singlet-?Sym    4.4124 eV  280.99 nm  f=0.5379  <S**2>=0.000
      50 -> 52         0.20074
      50 -> 53         0.10135
      51 -> 52         0.64648

 Excited state symmetry could not be determined.
 Excited State   3:      Singlet-?Sym    4.7943 eV  258.61 nm  f=0.1670  <S**2>=0.000
      48 -> 54        -0.11784
      50 -> 52         0.62903
      51 -> 52        -0.22629
      51 -> 53         0.12974

 Excited state symmetry could not be determined.
 Excited State   4:      Singlet-?Sym    5.5739 eV  222.44 nm  f=0.0497  <S**2>=0.000
      48 -> 52         0.57130
      48 -> 54         0.12043
      50 -> 52         0.15666
      50 -> 53        -0.26500
      51 -> 53        -0.19932
      51 -> 54         0.10102

 Alpha  occ. eigenvalues --    0.00000   0.00000   0.00000   0.00000   0.00000
 Alpha  occ. eigenvalues --    0.00000   0.00000   0.00000   0.00000   0.00000
 Alpha  occ. eigenvalues --    0.00000   0.00000   0.00000   0.00000   0.00000
 Alpha  occ. eigenvalues --    0.00000   0.00000   0.00000   0.00000   0.00000
 Alpha  occ. eigenvalues --    0.00000   0.00000   0.00000   0.00000   0.00000
 Alpha  occ. eigenvalues --    0.00000   0.00000   0.00000   0.00000   0.00000
 Alpha  occ. eigenvalues --    0.00000   0.00000   0.00000   0.00000   0.00000
 Alpha  occ. eigenvalues --    0.00000   0.00001   0.00001   0.00001   0.00001
 Alpha  occ. eigenvalues --    0.00001   0.00002   0.00002   0.00003   0.00004
 Alpha  occ. eigenvalues --    0.00005   0.00007   0.00016   0.00041   0.00194
 Alpha  occ. eigenvalues --    0.99844
 Alpha virt. eigenvalues --    0.99844   0.00194   0.00041   0.00016   0.00007
 Alpha virt. eigenvalues --    0.00005   0.00004   0.00003   0.00002   0.00002
 Alpha virt. eigenvalues --    0.00001   0.00001   0.00001   0.00001   0.00001

 Mulliken charges:
               1
     1  C    5.994047
     2  C    6.002628
     3  C    6.003236
     4  C    6.000110
     5  C    6.001111
     6  O    8.013390
     7  C    6.001518
     8  O    8.002641
     9  H    0.998826
    10  C    6.000094
    11  H    1.001441
    12  C    5.993982
    13  H    1.002603
    14  C    6.000989
    15  H    1.001319
    16  H    1.001417
    17  H    0.996994
    18  N    6.995336
    19  H    1.001564
    20  C    6.001370
    21  C    6.001399
    22  H    0.996880
    23  H    0.998456
    24  H    0.996426
    25  H    0.997354
    26  H    0.998045
    27  H    0.996824
 Sum of Mulliken charges = 102.00000

 Dipole moment (field-independent basis, Debye):
    X=              0.5193    Y=              0.3215    Z=              0.1002  Tot=              0.6189
 Quadrupole moment (field-independent basis, Debye-Ang):
   XX=              7.8767   YY=              0.8155   ZZ=              0.8235
   XY=              2.8984   XZ=              2.6647   YZ=              1.5393

 Normal termination of Gaussian 09 at Thu Sep 28 11:13:06 2017.
