 Gaussian 09, Revision D.01,
 Gaussian 09:  ES64L-G09RevD.01 24-Apr-2013

 ----------------------------------
 #p wb97xd 6-31G* td=(add=2) nosymm
 ----------------------------------

 -----
 title
 -----
 Symbolic Z-matrix:
 Charge =  0 Multiplicity = 1

                          Input orientation:
 ---------------------------------------------------------------------
 Center     Atomic      Atomic             Coordinates (Angstroms)
 Number     Number       Type             X           Y           Z
 ---------------------------------------------------------------------
      1          6           0        9.467207    2.424439    3.544461
      2          6           0        8.155126    2.070967    4.158769
      3          6           0       10.336436    3.295495    4.226761
      4          6           0        9.896170    1.913378    2.312501
      5          6           0        7.208229    1.294170    3.443876
      6          8           0        7.912238    2.503024    5.324355
      7          6           0       11.584305    3.611727    3.689188
      8          8           0        9.992177    3.848953    5.406054
      9          1           0        9.268451    3.548396    5.647697
     10          6           0       11.127325    2.243600    1.787772
     11          1           0        9.338838    1.339196    1.839036
     12          6           0        6.031561    0.936385    4.047283
     13          1           0        7.385039    1.028856    2.569686
     14          6           0       11.968414    3.087515    2.480540
     15          1           0       12.157612    4.179596    4.151861
     16          1           0       11.390398    1.896756    0.965926
     17          1           0        5.929588    1.201384    4.933236
     18          7           0        5.025329    0.261738    3.526114
     19          1           0       12.801178    3.303280    2.127195
     20          6           0        5.036006   -0.187151    2.151694
     21          6           0        3.843738   -0.061121    4.326484
     22          1           0        5.401543    0.502856    1.592968
     23          1           0        4.138578   -0.383980    1.872493
     24          1           0        5.574460   -0.978360    2.077549
     25          1           0        3.957830    0.278780    5.217078
     26          1           0        3.729849   -1.014129    4.359076
     27          1           0        3.067854    0.340848    3.928457
     28          6           0       12.011662    2.835561    8.940695
     29          6           0       10.699581    3.189033    9.555001
     30          6           0       12.880891    1.964505    9.622993
     31          6           0       12.440624    3.346622    7.708734
     32          6           0        9.752684    3.965830    8.840109
     33          8           0       10.456694    2.756977   10.720588
     34          6           0       14.128759    1.648274    9.085422
     35          8           0       12.536632    1.411048   10.802287
     36          1           0       11.812906    1.711604   11.043929
     37          6           0       13.671781    3.016400    7.184005
     38          1           0       11.883292    3.920804    7.235269
     39          6           0        8.576015    4.323615    9.443515
     40          1           0        9.929493    4.231144    7.965919
     41          6           0       14.512870    2.172485    7.876772
     42          1           0       14.702066    1.080404    9.548094
     43          1           0       13.934852    3.363244    6.362158
     44          1           0        8.474043    4.058616   10.329469
     45          7           0        7.569783    4.998263    8.922347
     46          1           0       15.345633    1.956720    7.523427
     47          6           0        7.580461    5.447151    7.547927
     48          6           0        6.388193    5.321122    9.722715
     49          1           0        8.118914    6.238360    7.473782
     50          1           0        6.683033    5.643980    7.268725
     51          1           0        7.945997    4.757144    6.989201
     52          1           0        6.502285    4.981220   10.613310
     53          1           0        5.612309    4.919152    9.324690
     54          1           0        6.274303    6.274128    9.755310
 ---------------------------------------------------------------------

 SCF Done:  E(RwB97XD) =  -1263.46674040     A.U. after   17 cycles

 Excitation energies and oscillator strengths:

 Excited state symmetry could not be determined.
 Excited State   1:      Singlet-?Sym    4.0716 eV  304.51 nm  f=0.0038  <S**2>=0.000
      98 ->104        -0.67683
      98 ->113         0.10998
 This state for optimization and/or second-order correction.
 Total Energy, E(TD-HF/TD-KS) =  -1263.31711193
 Copying the excited state density for this state as the 1-particle RhoCI density.

 Excited state symmetry could not be determined.
 Excited State   2:      Singlet-?Sym    4.0984 eV  302.52 nm  f=0.0042  <S**2>=0.000
      95 ->103         0.10477
      96 ->103         0.67213
      96 ->110         0.12191

 Excited state symmetry could not be determined.
 Excited State   3:      Singlet-?Sym    4.4076 eV  281.29 nm  f=0.2644  <S**2>=0.000
      99 ->103        -0.14715
     100 ->103        -0.37993
     101 ->104         0.15015
     102 ->104         0.51939

 Excited state symmetry could not be determined.
 Excited State   4:      Singlet-?Sym    4.4207 eV  280.46 nm  f=0.8362  <S**2>=0.000
      99 ->103         0.15104
     100 ->103         0.51765
     101 ->104         0.16423
     102 ->104         0.37618

 Alpha  occ. eigenvalues --  -19.26622 -19.23848 -19.22875 -19.20374 -14.51001
 Alpha  occ. eigenvalues --  -14.48606 -10.37155 -10.35840 -10.34637 -10.34176
 Alpha  occ. eigenvalues --  -10.33462 -10.31697 -10.31659 -10.31239 -10.29817
 Alpha  occ. eigenvalues --  -10.29694 -10.28577 -10.28575 -10.28069 -10.27251
 Alpha  occ. eigenvalues --  -10.27151 -10.26998 -10.26254 -10.26019 -10.25973
 Alpha  occ. eigenvalues --  -10.24920 -10.24754 -10.23582  -1.18343  -1.15609
 Alpha  occ. eigenvalues --   -1.09989  -1.09216  -1.07522  -1.06812  -0.95778
 Alpha  occ. eigenvalues --   -0.93472  -0.90435  -0.89040  -0.88092  -0.86863
 Alpha  occ. eigenvalues --   -0.86669  -0.85019  -0.84532  -0.82678  -0.82117
 Alpha  occ. eigenvalues --   -0.79735  -0.74808  -0.72450  -0.72134  -0.71285
 Alpha  occ. eigenvalues --   -0.69713  -0.68828  -0.67313  -0.65114  -0.64803
 Alpha  occ. eigenvalues --   -0.63108  -0.62655  -0.61043  -0.60770  -0.60619
 Alpha  occ. eigenvalues --   -0.59172  -0.58792  -0.58384  -0.56722  -0.55449
 Alpha  occ. eigenvalues --   -0.55353  -0.54777  -0.53815  -0.53193  -0.52946
 Alpha  occ. eigenvalues --   -0.52923  -0.52477  -0.51772  -0.51507  -0.50640
 Alpha  occ. eigenvalues --   -0.50308  -0.50031  -0.49447  -0.48039  -0.47702
 Alpha  occ. eigenvalues --   -0.47527  -0.47235  -0.45935  -0.45248  -0.45150
 Alpha  occ. eigenvalues --   -0.44895  -0.43450  -0.42972  -0.42397  -0.41957
 Alpha  occ. eigenvalues --   -0.41610  -0.39929  -0.39516  -0.39265  -0.32515
 Alpha  occ. eigenvalues --   -0.32019  -0.30217  -0.29511  -0.29336  -0.28092
 Alpha  occ. eigenvalues --   -0.26938  -0.25614
 Alpha virt. eigenvalues --    0.01903   0.04294   0.08042   0.10027   0.10422
 Alpha virt. eigenvalues --    0.12344   0.16721   0.18352   0.18752   0.20095
 Alpha virt. eigenvalues --    0.20574   0.21516   0.22041   0.22362   0.22728

 Mulliken charges:
               1
     1  C   -0.013919
     2  C    0.429815
     3  C    0.252049
     4  C   -0.179198
     5  C   -0.303251
     6  O   -0.620555
     7  C   -0.168545
     8  O   -0.632137
     9  H    0.454636
    10  C   -0.150944
    11  H    0.139725
    12  C    0.156014
    13  H    0.124790
    14  C   -0.127745
    15  H    0.151716
    16  H    0.140712
    17  H    0.184108
    18  N   -0.472590
    19  H    0.150555
    20  C   -0.350818
    21  C   -0.350615
    22  H    0.206845
    23  H    0.193782
    24  H    0.207976
    25  H    0.205917
    26  H    0.201965
    27  H    0.198808
    28  C   -0.023578
    29  C    0.420885
    30  C    0.249748
    31  C   -0.168100
    32  C   -0.294118
    33  O   -0.619755
    34  C   -0.171773
    35  O   -0.605852
    36  H    0.415130
    37  C   -0.156196
    38  H    0.152767
    39  C    0.149126
    40  H    0.133904
    41  C   -0.129054
    42  H    0.145314
    43  H    0.128622
    44  H    0.178153
    45  N   -0.471070
    46  H    0.141189
    47  C   -0.351216
    48  C   -0.348338
    49  H    0.201271
    50  H    0.184285
    51  H    0.217699
    52  H    0.202385
    53  H    0.194369
    54  H    0.195107
 Sum of Mulliken charges =   0.00000

 Dipole moment (field-independent basis, Debye):
    X=            -10.2226    Y=             -0.2549    Z=             -7.7774  Tot=             12.8473
 Quadrupole moment (field-independent basis, Debye-Ang):
   XX=           -308.9739   YY=           -145.9735   ZZ=           -260.0068
   XY=            -16.9345   XZ=           -145.9422   YZ=              1.2055

 Normal termination of Gaussian 09 at Thu Sep 28 12:36:53 2017.
