 Gaussian 09, Revision D.01,
 Gaussian 09:  ES64L-G09RevD.01 24-Apr-2013

 ----------------------------------------------------------------------
 #p wb97xd 6-31G* td=(nstates=4) nosymm density=(transition=1) pop=Save
 NTO
 ----------------------------------------------------------------------

 -----
 title
 -----
 Symbolic Z-matrix:
 Charge =  0 Multiplicity = 1

                          Input orientation:
 ---------------------------------------------------------------------
 Center     Atomic      Atomic             Coordinates (Angstroms)
 Number     Number       Type             X           Y           Z
 ---------------------------------------------------------------------
      1          6           0       12.011662    2.835561    8.940695
      2          6           0       10.699581    3.189033    9.555001
      3          6           0       12.880891    1.964505    9.622993
      4          6           0       12.440624    3.346622    7.708734
      5          6           0        9.752684    3.965830    8.840109
      6          8           0       10.456694    2.756977   10.720588
      7          6           0       14.128759    1.648274    9.085422
      8          8           0       12.536632    1.411048   10.802287
      9          1           0       11.812906    1.711604   11.043929
     10          6           0       13.671781    3.016400    7.184005
     11          1           0       11.883292    3.920804    7.235269
     12          6           0        8.576015    4.323615    9.443515
     13          1           0        9.929493    4.231144    7.965919
     14          6           0       14.512870    2.172485    7.876772
     15          1           0       14.702066    1.080404    9.548094
     16          1           0       13.934852    3.363244    6.362158
     17          1           0        8.474043    4.058616   10.329469
     18          7           0        7.569783    4.998263    8.922347
     19          1           0       15.345633    1.956720    7.523427
     20          6           0        7.580461    5.447151    7.547927
     21          6           0        6.388193    5.321122    9.722715
     22          1           0        8.118914    6.238360    7.473782
     23          1           0        6.683033    5.643980    7.268725
     24          1           0        7.945997    4.757144    6.989201
     25          1           0        6.502285    4.981220   10.613310
     26          1           0        5.612309    4.919152    9.324690
     27          1           0        6.274303    6.274128    9.755310
 ---------------------------------------------------------------------

 SCF Done:  E(RwB97XD) =  -631.728589074     A.U. after   17 cycles

 Excitation energies and oscillator strengths:

 Excited state symmetry could not be determined.
 Excited State   1:      Singlet-?Sym    4.0542 eV  305.81 nm  f=0.0029  <S**2>=0.000
      49 -> 52         0.67831
      49 -> 56         0.12861
 This state for optimization and/or second-order correction.
 Total Energy, E(TD-HF/TD-KS) =  -631.579598961
 Copying the excited state density for this state as the 1-particle RhoCI density.

 Excited state symmetry could not be determined.
 Excited State   2:      Singlet-?Sym    4.4123 eV  280.99 nm  f=0.5379  <S**2>=0.000
      50 -> 52         0.20074
      50 -> 53         0.10135
      51 -> 52         0.64648

 Excited state symmetry could not be determined.
 Excited State   3:      Singlet-?Sym    4.7943 eV  258.61 nm  f=0.1670  <S**2>=0.000
      48 -> 54        -0.11784
      50 -> 52         0.62903
      51 -> 52        -0.22629
      51 -> 53         0.12974

 Excited state symmetry could not be determined.
 Excited State   4:      Singlet-?Sym    5.5739 eV  222.44 nm  f=0.0497  <S**2>=0.000
      48 -> 52         0.57130
      48 -> 54         0.12043
      50 -> 52         0.15666
      50 -> 53        -0.26500
      51 -> 53        -0.19931
      51 -> 54         0.10102

 Alpha  occ. eigenvalues --    0.00000   0.00000   0.00000   0.00000   0.00000
 Alpha  occ. eigenvalues --    0.00000   0.00000   0.00000   0.00000   0.00000
 Alpha  occ. eigenvalues --    0.00000   0.00000   0.00000   0.00000   0.00000
 Alpha  occ. eigenvalues --    0.00000   0.00000   0.00000   0.00000   0.00000
 Alpha  occ. eigenvalues --    0.00000   0.00000   0.00000   0.00000   0.00000
 Alpha  occ. eigenvalues --    0.00000   0.00000   0.00000   0.00000   0.00000
 Alpha  occ. eigenvalues --    0.00000   0.00000   0.00000   0.00000   0.00000
 Alpha  occ. eigenvalues --    0.00000   0.00001   0.00001   0.00001   0.00001
 Alpha  occ. eigenvalues --    0.00001   0.00002   0.00002   0.00003   0.00004
 Alpha  occ. eigenvalues --    0.00005   0.00007   0.00016   0.00041   0.00194
 Alpha  occ. eigenvalues --    0.99844
 Alpha virt. eigenvalues --    0.99844   0.00194   0.00041   0.00016   0.00007
 Alpha virt. eigenvalues --    0.00005   0.00004   0.00003   0.00002   0.00002
 Alpha virt. eigenvalues --    0.00001   0.00001   0.00001   0.00001   0.00001

 Mulliken charges:
               1
     1  C    6.005953
     2  C    5.997372
     3  C    5.996764
     4  C    5.999890
     5  C    5.998889
     6  O    7.986610
     7  C    5.998482
     8  O    7.997359
     9  H    1.001174
    10  C    5.999906
    11  H    0.998559
    12  C    6.006018
    13  H    0.997397
    14  C    5.999012
    15  H    0.998681
    16  H    0.998583
    17  H    1.003006
    18  N    7.004664
    19  H    0.998436
    20  C    5.998630
    21  C    5.998601
    22  H    1.003574
    23  H    1.001544
    24  H    1.003120
    25  H    1.002646
    26  H    1.003176
    27  H    1.001955
 Sum of Mulliken charges = 102.00000

 Dipole moment (field-independent basis, Debye):
    X=             -0.5193    Y=              0.3215    Z=             -0.1002  Tot=              0.6189
 Quadrupole moment (field-independent basis, Debye-Ang):
   XX=            -10.5190   YY=              2.5664   ZZ=             -1.9044
   XY=              0.9850   XZ=             -5.7216   YZ=              2.7472

 Normal termination of Gaussian 09 at Thu Sep 28 12:23:18 2017.
