 Gaussian 09, Revision D.01,
 Gaussian 09:  ES64L-G09RevD.01 24-Apr-2013

 ----------------------------------------------------------------------
 #p wb97xd 6-31G* td=(nstates=4) nosymm density=(transition=1) pop=Save
 NTO
 ----------------------------------------------------------------------

 -----
 title
 -----
 Symbolic Z-matrix:
 Charge =  0 Multiplicity = 1

                          Input orientation:
 ---------------------------------------------------------------------
 Center     Atomic      Atomic             Coordinates (Angstroms)
 Number     Number       Type             X           Y           Z
 ---------------------------------------------------------------------
      1          6           0        2.462405    2.375572   -1.800125
      2          6           0        1.159578    2.013360   -1.173465
      3          6           0        3.313492    3.292147   -1.139962
      4          6           0        2.888558    1.852738   -3.030336
      5          6           0        0.201041    1.230789   -1.905309
      6          8           0        0.921875    2.418525   -0.014927
      7          6           0        4.525267    3.671279   -1.729410
      8          8           0        3.007768    3.827443    0.046358
      9          1           0        2.133175    3.438542    0.300185
     10          6           0        4.092137    2.216912   -3.601796
     11          1           0        2.264076    1.138734   -3.552176
     12          6           0       -1.000959    0.947165   -1.313357
     13          1           0        0.407522    0.922738   -2.918369
     14          6           0        4.908207    3.139107   -2.943634
     15          1           0        5.144495    4.388729   -1.203865
     16          1           0        4.394380    1.795305   -4.552644
     17          1           0       -1.151386    1.289612   -0.293372
     18          7           0       -2.028940    0.304394   -1.865188
     19          1           0        5.849760    3.443398   -3.387932
     20          6           0       -1.922537   -0.234483   -3.207129
     21          6           0       -3.226450   -0.008097   -1.105437
     22          1           0       -1.645935    0.552887   -3.915959
     23          1           0       -2.886600   -0.644443   -3.507159
     24          1           0       -1.172147   -1.031410   -3.245282
     25          1           0       -3.167451    0.461706   -0.124087
     26          1           0       -3.327256   -1.088156   -0.968495
     27          1           0       -4.111155    0.375575   -1.623476
 ---------------------------------------------------------------------

 SCF Done:  E(RwB97XD) =  -631.983551836     A.U. after   17 cycles

 Excitation energies and oscillator strengths:

 Excited state symmetry could not be determined.
 Excited State   1:      Singlet-?Sym    4.2332 eV  292.88 nm  f=0.3241  <S**2>=0.000
      48 -> 52         0.29976
      49 -> 52         0.22437
      51 -> 52         0.56997
 This state for optimization and/or second-order correction.
 Total Energy, E(TD-HF/TD-KS) =  -631.827983483
 Copying the excited state density for this state as the 1-particle RhoCI density.

 Excited state symmetry could not be determined.
 Excited State   2:      Singlet-?Sym    4.2633 eV  290.82 nm  f=0.1395  <S**2>=0.000
      48 -> 52         0.43798
      49 -> 52         0.37302
      51 -> 52        -0.36619

 Excited state symmetry could not be determined.
 Excited State   3:      Singlet-?Sym    4.7328 eV  261.97 nm  f=0.2758  <S**2>=0.000
      50 -> 52         0.67109
      51 -> 53        -0.13087

 Excited state symmetry could not be determined.
 Excited State   4:      Singlet-?Sym    5.5095 eV  225.04 nm  f=0.0319  <S**2>=0.000
      48 -> 52        -0.36743
      49 -> 52         0.44033
      50 -> 52         0.12321
      50 -> 53        -0.18503
      51 -> 53         0.27302
      51 -> 54        -0.14062

 Alpha  occ. eigenvalues --    0.00000   0.00000   0.00000   0.00000   0.00000
 Alpha  occ. eigenvalues --    0.00000   0.00000   0.00000   0.00000   0.00000
 Alpha  occ. eigenvalues --    0.00000   0.00000   0.00000   0.00000   0.00000
 Alpha  occ. eigenvalues --    0.00000   0.00000   0.00001   0.00001   0.00001
 Alpha  occ. eigenvalues --    0.00001   0.00001   0.00001   0.00001   0.00001
 Alpha  occ. eigenvalues --    0.00002   0.00002   0.00002   0.00003   0.00005
 Alpha  occ. eigenvalues --    0.00007   0.00008   0.00009   0.00010   0.00010
 Alpha  occ. eigenvalues --    0.00013   0.00014   0.00016   0.00019   0.00022
 Alpha  occ. eigenvalues --    0.00023   0.00027   0.00028   0.00032   0.00036
 Alpha  occ. eigenvalues --    0.00045   0.00093   0.00355   0.01679   0.03061
 Alpha  occ. eigenvalues --    0.95058
 Alpha virt. eigenvalues --    0.95058   0.03061   0.01679   0.00355   0.00093
 Alpha virt. eigenvalues --    0.00045   0.00036   0.00032   0.00028   0.00027
 Alpha virt. eigenvalues --    0.00023   0.00022   0.00019   0.00016   0.00014

 Mulliken charges:
               1
     1  C    5.942830
     2  C    6.007072
     3  C    6.040295
     4  C    6.003412
     5  C    6.026106
     6  O    8.004050
     7  C    6.027001
     8  O    8.049068
     9  H    1.012067
    10  C    5.990594
    11  H    1.013153
    12  C    5.952898
    13  H    0.996700
    14  C    6.018846
    15  H    1.027962
    16  H    1.013660
    17  H    0.973416
    18  N    6.971902
    19  H    1.026156
    20  C    6.021015
    21  C    6.017484
    22  H    0.972034
    23  H    0.984534
    24  H    0.970292
    25  H    0.981665
    26  H    0.977039
    27  H    0.978750
 Sum of Mulliken charges = 102.00000

 Dipole moment (field-independent basis, Debye):
    X=              5.5294    Y=              3.0939    Z=              0.4751  Tot=              6.3539
 Quadrupole moment (field-independent basis, Debye-Ang):
   XX=             12.5662   YY=             11.7502   ZZ=             -0.7486
   XY=             13.9278   XZ=             -9.4287   YZ=             -3.8366

 Normal termination of Gaussian 09 at Thu Sep 28 11:58:49 2017.
