 Gaussian 09, Revision D.01,
 Gaussian 09:  ES64L-G09RevD.01 24-Apr-2013

 ----------------------------------
 #p wb97xd 6-31G* td=(add=2) nosymm
 ----------------------------------

 -----
 title
 -----
 Symbolic Z-matrix:
 Charge =  0 Multiplicity = 1

                          Input orientation:
 ---------------------------------------------------------------------
 Center     Atomic      Atomic             Coordinates (Angstroms)
 Number     Number       Type             X           Y           Z
 ---------------------------------------------------------------------
      1          6           0        2.462405    2.375572   -1.800125
      2          6           0        1.159578    2.013360   -1.173465
      3          6           0        3.313492    3.292147   -1.139962
      4          6           0        2.888558    1.852738   -3.030336
      5          6           0        0.201041    1.230789   -1.905309
      6          8           0        0.921875    2.418525   -0.014927
      7          6           0        4.525267    3.671279   -1.729410
      8          8           0        3.007768    3.827443    0.046358
      9          1           0        2.133175    3.438542    0.300185
     10          6           0        4.092137    2.216912   -3.601796
     11          1           0        2.264076    1.138734   -3.552176
     12          6           0       -1.000959    0.947165   -1.313357
     13          1           0        0.407522    0.922738   -2.918369
     14          6           0        4.908207    3.139107   -2.943634
     15          1           0        5.144495    4.388729   -1.203865
     16          1           0        4.394380    1.795305   -4.552644
     17          1           0       -1.151386    1.289612   -0.293372
     18          7           0       -2.028940    0.304394   -1.865188
     19          1           0        5.849760    3.443398   -3.387932
     20          6           0       -1.922537   -0.234483   -3.207129
     21          6           0       -3.226450   -0.008097   -1.105437
     22          1           0       -1.645935    0.552887   -3.915959
     23          1           0       -2.886600   -0.644443   -3.507159
     24          1           0       -1.172147   -1.031410   -3.245282
     25          1           0       -3.167451    0.461706   -0.124087
     26          1           0       -3.327256   -1.088156   -0.968495
     27          1           0       -4.111155    0.375575   -1.623476
     28          6           0       -2.465425   -2.364375    1.787541
     29          6           0       -1.172143   -1.994760    1.145085
     30          6           0       -3.298074   -3.321217    1.163794
     31          6           0       -2.903713   -1.792329    2.990652
     32          6           0       -0.181857   -1.281173    1.903170
     33          8           0       -0.977156   -2.330632   -0.042860
     34          6           0       -4.498958   -3.704170    1.771591
     35          8           0       -2.983612   -3.890922   -0.005857
     36          1           0       -2.151107   -3.452800   -0.305064
     37          6           0       -4.101957   -2.154185    3.576386
     38          1           0       -2.299292   -1.030018    3.466700
     39          6           0        0.971087   -0.884025    1.280550
     40          1           0       -0.335935   -1.105601    2.956483
     41          6           0       -4.894978   -3.124585    2.961132
     42          1           0       -5.106508   -4.452301    1.275116
     43          1           0       -4.421720   -1.687315    4.500109
     44          1           0        1.056240   -1.062342    0.212470
     45          7           0        2.022127   -0.300574    1.856453
     46          1           0       -5.835213   -3.421827    3.413024
     47          6           0        2.014763   -0.017902    3.278582
     48          6           0        3.156912    0.167462    1.080475
     49          1           0        1.248162    0.724955    3.527576
     50          1           0        2.987944    0.374064    3.571110
     51          1           0        1.819639   -0.932225    3.848537
     52          1           0        3.018558   -0.097841    0.031927
     53          1           0        4.079346   -0.295969    1.443957
     54          1           0        3.249809    1.255049    1.149636
 ---------------------------------------------------------------------

 SCF Done:  E(RwB97XD) =  -1263.99185467     A.U. after   16 cycles

 Excitation energies and oscillator strengths:

 Excited state symmetry could not be determined.
 Excited State   1:      Singlet-?Sym    4.1712 eV  297.24 nm  f=0.0019  <S**2>=0.000
     101 ->103         0.48794
     102 ->104        -0.45071
 This state for optimization and/or second-order correction.
 Total Energy, E(TD-HF/TD-KS) =  -1263.83856481
 Copying the excited state density for this state as the 1-particle RhoCI density.

 Excited state symmetry could not be determined.
 Excited State   2:      Singlet-?Sym    4.2782 eV  289.81 nm  f=0.6306  <S**2>=0.000
      95 ->104        -0.12854
      96 ->103         0.15332
      96 ->104         0.14546
      97 ->103         0.12364
      98 ->103         0.15050
      98 ->104         0.23786
      99 ->104        -0.10259
     101 ->103         0.21893
     101 ->104        -0.29155
     102 ->103         0.32538
     102 ->104         0.17882

 Excited state symmetry could not be determined.
 Excited State   3:      Singlet-?Sym    4.3257 eV  286.62 nm  f=0.0280  <S**2>=0.000
      95 ->103         0.22445
      96 ->104        -0.23555
      97 ->103         0.39861
      97 ->104        -0.23138
      98 ->103        -0.19189
      98 ->104        -0.28538
     102 ->104         0.11856

 Excited state symmetry could not be determined.
 Excited State   4:      Singlet-?Sym    4.3355 eV  285.98 nm  f=0.3223  <S**2>=0.000
      95 ->104        -0.15007
      96 ->103         0.17752
      96 ->104         0.11081
      97 ->103         0.32194
      97 ->104        -0.19784
      98 ->103         0.17068
      98 ->104         0.27110
     100 ->103        -0.10464
     100 ->104        -0.10818
     101 ->104         0.19292
     102 ->103        -0.21168
     102 ->104        -0.15120

 Alpha  occ. eigenvalues --  -19.27378 -19.27372 -19.24309 -19.24188 -14.50257
 Alpha  occ. eigenvalues --  -14.50198 -10.37961 -10.37808 -10.36084 -10.35988
 Alpha  occ. eigenvalues --  -10.35275 -10.35181 -10.33964 -10.33897 -10.33606
 Alpha  occ. eigenvalues --  -10.33470 -10.30619 -10.30503 -10.30470 -10.30390
 Alpha  occ. eigenvalues --  -10.30092 -10.29955 -10.29226 -10.29159 -10.29018
 Alpha  occ. eigenvalues --  -10.28969 -10.27867 -10.27726  -1.15501  -1.15373
 Alpha  occ. eigenvalues --   -1.11515  -1.11386  -1.07582  -1.07506  -0.95119
 Alpha  occ. eigenvalues --   -0.95026  -0.88307  -0.88171  -0.85574  -0.85431
 Alpha  occ. eigenvalues --   -0.83890  -0.83850  -0.83289  -0.83216  -0.79115
 Alpha  occ. eigenvalues --   -0.78973  -0.73007  -0.72880  -0.69433  -0.69333
 Alpha  occ. eigenvalues --   -0.68107  -0.67985  -0.64213  -0.64077  -0.62005
 Alpha  occ. eigenvalues --   -0.61772  -0.59870  -0.59839  -0.58313  -0.58232
 Alpha  occ. eigenvalues --   -0.57269  -0.57126  -0.56871  -0.56749  -0.54632
 Alpha  occ. eigenvalues --   -0.54513  -0.52396  -0.52253  -0.51327  -0.51261
 Alpha  occ. eigenvalues --   -0.51131  -0.50922  -0.50543  -0.50391  -0.49723
 Alpha  occ. eigenvalues --   -0.49609  -0.49284  -0.49118  -0.48119  -0.48065
 Alpha  occ. eigenvalues --   -0.46657  -0.46350  -0.46071  -0.45805  -0.45646
 Alpha  occ. eigenvalues --   -0.45399  -0.44812  -0.44683  -0.41736  -0.41689
 Alpha  occ. eigenvalues --   -0.41614  -0.41410  -0.40380  -0.40247  -0.32967
 Alpha  occ. eigenvalues --   -0.32905  -0.32690  -0.32470  -0.29233  -0.29120
 Alpha  occ. eigenvalues --   -0.27669  -0.27596
 Alpha virt. eigenvalues --    0.01576   0.01891   0.07930   0.08179   0.09816
 Alpha virt. eigenvalues --    0.09925   0.16040   0.16590   0.17153   0.17526
 Alpha virt. eigenvalues --    0.17955   0.18233   0.18918   0.19230   0.20234

 Mulliken charges:
               1
     1  C   -0.021670
     2  C    0.434268
     3  C    0.315662
     4  C   -0.209436
     5  C   -0.330773
     6  O   -0.625573
     7  C   -0.209306
     8  O   -0.678233
     9  H    0.464586
    10  C   -0.186954
    11  H    0.166555
    12  C    0.133464
    13  H    0.151818
    14  C   -0.160313
    15  H    0.177482
    16  H    0.163217
    17  H    0.211712
    18  N   -0.381930
    19  H    0.169767
    20  C   -0.372566
    21  C   -0.371068
    22  H    0.190137
    23  H    0.192474
    24  H    0.203610
    25  H    0.194991
    26  H    0.204627
    27  H    0.180747
    28  C   -0.019815
    29  C    0.429584
    30  C    0.315383
    31  C   -0.208960
    32  C   -0.330286
    33  O   -0.621168
    34  C   -0.209645
    35  O   -0.679456
    36  H    0.461928
    37  C   -0.186773
    38  H    0.165420
    39  C    0.134027
    40  H    0.152433
    41  C   -0.160912
    42  H    0.177110
    43  H    0.162627
    44  H    0.209458
    45  N   -0.384609
    46  H    0.169120
    47  C   -0.372153
    48  C   -0.371548
    49  H    0.197066
    50  H    0.192980
    51  H    0.192789
    52  H    0.195303
    53  H    0.180434
    54  H    0.202366
 Sum of Mulliken charges =   0.00000

 Dipole moment (field-independent basis, Debye):
    X=              0.0075    Y=              0.0467    Z=             -0.0514  Tot=              0.0698
 Quadrupole moment (field-independent basis, Debye-Ang):
   XX=           -146.6212   YY=           -190.6190   ZZ=           -140.5829
   XY=             -8.6942   XZ=              2.2082   YZ=              0.8688

 Normal termination of Gaussian 09 at Thu Sep 28 18:47:29 2017.
