 Gaussian 09, Revision D.01,
 Gaussian 09:  ES64L-G09RevD.01 24-Apr-2013

 ---------------------------------------------------------------------
 #p wb97xd 6-31G* td=(add=3) nosymm density=(transition=1) pop=SaveNTO
 ---------------------------------------------------------------------

 -----
 title
 -----
 Symbolic Z-matrix:
 Charge =  0 Multiplicity = 1

                          Input orientation:
 ---------------------------------------------------------------------
 Center     Atomic      Atomic             Coordinates (Angstroms)
 Number     Number       Type             X           Y           Z
 ---------------------------------------------------------------------
      1          6           0       -2.465425   -2.364375    1.787541
      2          6           0       -1.172143   -1.994760    1.145085
      3          6           0       -3.298074   -3.321217    1.163794
      4          6           0       -2.903713   -1.792329    2.990652
      5          6           0       -0.181857   -1.281173    1.903170
      6          8           0       -0.977156   -2.330632   -0.042860
      7          6           0       -4.498958   -3.704170    1.771591
      8          8           0       -2.983612   -3.890922   -0.005857
      9          1           0       -2.151107   -3.452800   -0.305064
     10          6           0       -4.101957   -2.154185    3.576386
     11          1           0       -2.299292   -1.030018    3.466700
     12          6           0        0.971087   -0.884025    1.280550
     13          1           0       -0.335935   -1.105601    2.956483
     14          6           0       -4.894978   -3.124585    2.961132
     15          1           0       -5.106508   -4.452301    1.275116
     16          1           0       -4.421720   -1.687315    4.500109
     17          1           0        1.056240   -1.062342    0.212470
     18          7           0        2.022127   -0.300574    1.856453
     19          1           0       -5.835213   -3.421827    3.413024
     20          6           0        2.014763   -0.017902    3.278582
     21          6           0        3.156912    0.167462    1.080475
     22          1           0        1.248162    0.724955    3.527576
     23          1           0        2.987944    0.374064    3.571110
     24          1           0        1.819639   -0.932225    3.848537
     25          1           0        3.018558   -0.097841    0.031927
     26          1           0        4.079346   -0.295969    1.443957
     27          1           0        3.249809    1.255049    1.149636
 ---------------------------------------------------------------------

 SCF Done:  E(RwB97XD) =  -631.983340887     A.U. after   17 cycles

 Excitation energies and oscillator strengths:

 Excited state symmetry could not be determined.
 Excited State   1:      Singlet-?Sym    4.2139 eV  294.23 nm  f=0.1086  <S**2>=0.000
      48 -> 52         0.45347
      49 -> 52         0.38843
      51 -> 52         0.33402
 This state for optimization and/or second-order correction.
 Total Energy, E(TD-HF/TD-KS) =  -631.828482448
 Copying the excited state density for this state as the 1-particle RhoCI density.

 Excited state symmetry could not be determined.
 Excited State   2:      Singlet-?Sym    4.2691 eV  290.42 nm  f=0.3424  <S**2>=0.000
      48 -> 52         0.23212
      49 -> 52         0.23320
      51 -> 52        -0.58852

 Excited state symmetry could not be determined.
 Excited State   3:      Singlet-?Sym    4.7398 eV  261.58 nm  f=0.2847  <S**2>=0.000
      49 -> 52        -0.10861
      50 -> 52         0.66701
      51 -> 53         0.12647

 Excited state symmetry could not be determined.
 Excited State   4:      Singlet-?Sym    5.4906 eV  225.81 nm  f=0.0318  <S**2>=0.000
      48 -> 52        -0.39093
      49 -> 52         0.42040
      50 -> 52         0.12303
      50 -> 53         0.18056
      51 -> 53        -0.27454
      51 -> 54        -0.13575

 Alpha  occ. eigenvalues --    0.00000   0.00000   0.00000   0.00000   0.00000
 Alpha  occ. eigenvalues --    0.00000   0.00000   0.00000   0.00000   0.00000
 Alpha  occ. eigenvalues --    0.00000   0.00000   0.00000   0.00000   0.00000
 Alpha  occ. eigenvalues --    0.00000   0.00000   0.00000   0.00000   0.00000
 Alpha  occ. eigenvalues --    0.00000   0.00001   0.00001   0.00001   0.00001
 Alpha  occ. eigenvalues --    0.00001   0.00001   0.00002   0.00002   0.00002
 Alpha  occ. eigenvalues --    0.00003   0.00003   0.00003   0.00004   0.00004
 Alpha  occ. eigenvalues --    0.00004   0.00006   0.00006   0.00007   0.00009
 Alpha  occ. eigenvalues --    0.00009   0.00010   0.00012   0.00013   0.00016
 Alpha  occ. eigenvalues --    0.00018   0.00030   0.00212   0.00504   0.01902
 Alpha  occ. eigenvalues --    0.97485
 Alpha virt. eigenvalues --    0.97485   0.01902   0.00504   0.00212   0.00030
 Alpha virt. eigenvalues --    0.00018   0.00016   0.00013   0.00012   0.00010
 Alpha virt. eigenvalues --    0.00009   0.00009   0.00007   0.00006   0.00006

 Mulliken charges:
               1
     1  C    5.966621
     2  C    6.007585
     3  C    6.023484
     4  C    5.998680
     5  C    6.013916
     6  O    8.021183
     7  C    6.014841
     8  O    8.023142
     9  H    1.005328
    10  C    5.995803
    11  H    1.007762
    12  C    5.970991
    13  H    1.003687
    14  C    6.009124
    15  H    1.015028
    16  H    1.008245
    17  H    0.982799
    18  N    6.980991
    19  H    1.013812
    20  C    6.013135
    21  C    6.011213
    22  H    0.980617
    23  H    0.990889
    24  H    0.981292
    25  H    0.987942
    26  H    0.985719
    27  H    0.986171
 Sum of Mulliken charges = 102.00000

 Dipole moment (field-independent basis, Debye):
    X=             -3.1854    Y=             -1.8170    Z=             -0.3766  Tot=              3.6865
 Quadrupole moment (field-independent basis, Debye-Ang):
   XX=              6.1092   YY=              6.5623   ZZ=             -0.7944
   XY=              7.2943   XZ=             -5.4515   YZ=             -1.9953

 Normal termination of Gaussian 09 at Thu Sep 28 15:34:08 2017.
