 Gaussian 09, Revision D.01,
 Gaussian 09:  ES64L-G09RevD.01 24-Apr-2013

 ---------------------------------------------------------------------
 #p wb97xd 6-31G* td=(add=3) nosymm density=(transition=1) pop=SaveNTO
 ---------------------------------------------------------------------

 -----
 title
 -----
 Symbolic Z-matrix:
 Charge =  0 Multiplicity = 1

                          Input orientation:
 ---------------------------------------------------------------------
 Center     Atomic      Atomic             Coordinates (Angstroms)
 Number     Number       Type             X           Y           Z
 ---------------------------------------------------------------------
      1          6           0        0.172341   -0.187617   -2.513281
      2          6           0       -1.159280   -0.530958   -1.948253
      3          6           0        0.999324    0.726072   -1.820478
      4          6           0        0.658540   -0.735505   -3.710156
      5          6           0       -2.064376   -1.389635   -2.681212
      6          8           0       -1.484290   -0.059676   -0.839821
      7          6           0        2.258423    1.060020   -2.329142
      8          8           0        0.621977    1.299573   -0.671555
      9          1           0       -0.251704    0.892357   -0.441721
     10          6           0        1.901769   -0.403627   -4.211587
     11          1           0        0.053759   -1.445943   -4.259628
     12          6           0       -3.253773   -1.710577   -2.098465
     13          1           0       -1.804856   -1.753759   -3.663895
     14          6           0        2.702534    0.499963   -3.510111
     15          1           0        2.867752    1.758760   -1.767654
     16          1           0        2.253370   -0.846389   -5.135799
     17          1           0       -3.441076   -1.319371   -1.102273
     18          7           0       -4.234034   -2.457669   -2.623664
     19          1           0        3.683379    0.761646   -3.891993
     20          6           0       -4.096938   -3.015073   -3.954991
     21          6           0       -5.442712   -2.754541   -1.878978
     22          1           0       -3.912790   -2.222641   -4.688619
     23          1           0       -5.018438   -3.528928   -4.225763
     24          1           0       -3.268862   -3.731619   -3.998260
     25          1           0       -5.393468   -2.277174   -0.900074
     26          1           0       -5.556990   -3.833238   -1.732732
     27          1           0       -6.325552   -2.375343   -2.404822
 ---------------------------------------------------------------------

 SCF Done:  E(RwB97XD) =  -631.984050246     A.U. after   17 cycles

 Excitation energies and oscillator strengths:

 Excited state symmetry could not be determined.
 Excited State   1:      Singlet-?Sym    4.2374 eV  292.60 nm  f=0.4274  <S**2>=0.000
      48 -> 52         0.19471
      51 -> 52         0.64560
 This state for optimization and/or second-order correction.
 Total Energy, E(TD-HF/TD-KS) =  -631.828330139
 Copying the excited state density for this state as the 1-particle RhoCI density.

 Excited state symmetry could not be determined.
 Excited State   2:      Singlet-?Sym    4.2798 eV  289.70 nm  f=0.0388  <S**2>=0.000
      48 -> 52         0.58894
      48 -> 57         0.10482
      49 -> 52         0.28260
      51 -> 52        -0.19681

 Excited state symmetry could not be determined.
 Excited State   3:      Singlet-?Sym    4.7227 eV  262.53 nm  f=0.2591  <S**2>=0.000
      50 -> 52         0.66543
      51 -> 52        -0.11459
      51 -> 53         0.12947

 Excited state symmetry could not be determined.
 Excited State   4:      Singlet-?Sym    5.5214 eV  224.55 nm  f=0.0347  <S**2>=0.000
      48 -> 52        -0.25046
      49 -> 52         0.52006
      49 -> 54         0.10242
      50 -> 52        -0.12547
      50 -> 53         0.19744
      51 -> 53         0.26156
      51 -> 54        -0.13458

 Alpha  occ. eigenvalues --    0.00000   0.00000   0.00000   0.00000   0.00000
 Alpha  occ. eigenvalues --    0.00000   0.00000   0.00000   0.00000   0.00000
 Alpha  occ. eigenvalues --    0.00000   0.00000   0.00000   0.00000   0.00000
 Alpha  occ. eigenvalues --    0.00000   0.00000   0.00001   0.00001   0.00001
 Alpha  occ. eigenvalues --    0.00001   0.00001   0.00001   0.00001   0.00002
 Alpha  occ. eigenvalues --    0.00002   0.00002   0.00003   0.00004   0.00006
 Alpha  occ. eigenvalues --    0.00009   0.00010   0.00011   0.00013   0.00013
 Alpha  occ. eigenvalues --    0.00017   0.00019   0.00020   0.00024   0.00027
 Alpha  occ. eigenvalues --    0.00029   0.00034   0.00037   0.00043   0.00051
 Alpha  occ. eigenvalues --    0.00059   0.00123   0.00305   0.02109   0.02567
 Alpha  occ. eigenvalues --    0.95194
 Alpha virt. eigenvalues --    0.95194   0.02567   0.02109   0.00305   0.00123
 Alpha virt. eigenvalues --    0.00059   0.00051   0.00043   0.00037   0.00034
 Alpha virt. eigenvalues --    0.00029   0.00027   0.00024   0.00020   0.00019

 Mulliken charges:
               1
     1  C    5.935134
     2  C    6.008239
     3  C    6.046196
     4  C    6.005023
     5  C    6.027493
     6  O    8.000420
     7  C    6.030031
     8  O    8.057883
     9  H    1.013862
    10  C    5.988814
    11  H    1.014859
    12  C    5.948148
    13  H    0.995157
    14  C    6.022640
    15  H    1.032289
    16  H    1.015523
    17  H    0.970152
    18  N    6.968331
    19  H    1.030356
    20  C    6.024024
    21  C    6.020332
    22  H    0.967484
    23  H    0.982412
    24  H    0.966917
    25  H    0.979220
    26  H    0.974640
    27  H    0.974421
 Sum of Mulliken charges = 102.00000

 Dipole moment (field-independent basis, Debye):
    X=              6.2694    Y=              3.6659    Z=              0.6750  Tot=              7.2938
 Quadrupole moment (field-independent basis, Debye-Ang):
   XX=            -13.6920   YY=             -5.3991   ZZ=             -2.4158
   XY=             -8.8661   XZ=            -16.4820   YZ=             -8.6865

 Normal termination of Gaussian 09 at Thu Sep 28 15:38:28 2017.
