 Gaussian 09, Revision D.01,
 Gaussian 09:  ES64L-G09RevD.01 24-Apr-2013

 ----------------------------------
 #p wb97xd 6-31G* td=(add=2) nosymm
 ----------------------------------

 -----
 title
 -----
 Symbolic Z-matrix:
 Charge =  0 Multiplicity = 1

                          Input orientation:
 ---------------------------------------------------------------------
 Center     Atomic      Atomic             Coordinates (Angstroms)
 Number     Number       Type             X           Y           Z
 ---------------------------------------------------------------------
      1          6           0        0.172341   -0.187617   -2.513281
      2          6           0       -1.159280   -0.530958   -1.948253
      3          6           0        0.999324    0.726072   -1.820478
      4          6           0        0.658540   -0.735505   -3.710156
      5          6           0       -2.064376   -1.389635   -2.681212
      6          8           0       -1.484290   -0.059676   -0.839821
      7          6           0        2.258423    1.060020   -2.329142
      8          8           0        0.621977    1.299573   -0.671555
      9          1           0       -0.251704    0.892357   -0.441721
     10          6           0        1.901769   -0.403627   -4.211587
     11          1           0        0.053759   -1.445943   -4.259628
     12          6           0       -3.253773   -1.710577   -2.098465
     13          1           0       -1.804856   -1.753759   -3.663895
     14          6           0        2.702534    0.499963   -3.510111
     15          1           0        2.867752    1.758760   -1.767654
     16          1           0        2.253370   -0.846389   -5.135799
     17          1           0       -3.441076   -1.319371   -1.102273
     18          7           0       -4.234034   -2.457669   -2.623664
     19          1           0        3.683379    0.761646   -3.891993
     20          6           0       -4.096938   -3.015073   -3.954991
     21          6           0       -5.442712   -2.754541   -1.878978
     22          1           0       -3.912790   -2.222641   -4.688619
     23          1           0       -5.018438   -3.528928   -4.225763
     24          1           0       -3.268862   -3.731619   -3.998260
     25          1           0       -5.393468   -2.277174   -0.900074
     26          1           0       -5.556990   -3.833238   -1.732732
     27          1           0       -6.325552   -2.375343   -2.404822
     28          6           0        2.845109    0.146510    2.769383
     29          6           0        1.556037    0.458959    3.442038
     30          6           0        3.890255   -0.444474    3.516121
     31          6           0        3.071142    0.419696    1.412774
     32          6           0        0.581420    1.293560    2.767584
     33          8           0        1.348961    0.019626    4.588492
     34          6           0        5.126913   -0.690212    2.908777
     35          8           0        3.754973   -0.779870    4.802038
     36          1           0        2.816130   -0.589386    5.038175
     37          6           0        4.285648    0.148700    0.811836
     38          1           0        2.271593    0.831557    0.811104
     39          6           0       -0.601627    1.545703    3.389144
     40          1           0        0.808278    1.713509    1.799433
     41          6           0        5.319830   -0.396616    1.574026
     42          1           0        5.912601   -1.124016    3.514929
     43          1           0        4.426974    0.351858   -0.242450
     44          1           0       -0.779696    1.063129    4.346396
     45          7           0       -1.587574    2.356426    2.962433
     46          1           0        6.281884   -0.601060    1.116508
     47          6           0       -1.484488    3.046062    1.692542
     48          6           0       -2.886045    2.353027    3.605579
     49          1           0       -0.493171    3.489494    1.582694
     50          1           0       -2.224397    3.847997    1.661639
     51          1           0       -1.662197    2.369891    0.847920
     52          1           0       -2.818827    1.853707    4.572311
     53          1           0       -3.632013    1.829713    2.993364
     54          1           0       -3.231297    3.379298    3.768317
 ---------------------------------------------------------------------

 SCF Done:  E(RwB97XD) =  -1263.97922826     A.U. after   16 cycles

 Excitation energies and oscillator strengths:

 Excited state symmetry could not be determined.
 Excited State   1:      Singlet-?Sym    4.2377 eV  292.58 nm  f=0.1507  <S**2>=0.000
      97 ->104         0.41421
      98 ->104        -0.26229
     100 ->103         0.14069
     102 ->104         0.45368
 This state for optimization and/or second-order correction.
 Total Energy, E(TD-HF/TD-KS) =  -1263.82349641
 Copying the excited state density for this state as the 1-particle RhoCI density.

 Excited state symmetry could not be determined.
 Excited State   2:      Singlet-?Sym    4.2591 eV  291.11 nm  f=0.4847  <S**2>=0.000
      95 ->103        -0.15340
      97 ->104        -0.12448
      98 ->104         0.10210
      99 ->103        -0.12347
     100 ->103         0.62972

 Excited state symmetry could not be determined.
 Excited State   3:      Singlet-?Sym    4.2861 eV  289.27 nm  f=0.2888  <S**2>=0.000
      97 ->104        -0.35455
      98 ->104         0.26436
     101 ->104         0.15278
     102 ->104         0.49153

 Excited state symmetry could not be determined.
 Excited State   4:      Singlet-?Sym    4.3245 eV  286.70 nm  f=0.0271  <S**2>=0.000
      95 ->103         0.64953
      95 ->112        -0.11071
      96 ->103         0.14628
     100 ->103         0.13967

 Alpha  occ. eigenvalues --  -19.28070 -19.25387 -19.25108 -19.22641 -14.51364
 Alpha  occ. eigenvalues --  -14.48951 -10.38735 -10.36513 -10.36193 -10.36139
 Alpha  occ. eigenvalues --  -10.35636 -10.35311 -10.34029 -10.33804 -10.33770
 Alpha  occ. eigenvalues --  -10.32791 -10.30977 -10.30781 -10.30488 -10.29512
 Alpha  occ. eigenvalues --  -10.29362 -10.28844 -10.28514 -10.27951 -10.27831
 Alpha  occ. eigenvalues --  -10.27033 -10.26985 -10.26262  -1.16173  -1.13523
 Alpha  occ. eigenvalues --   -1.12315  -1.09886  -1.08724  -1.06343  -0.95470
 Alpha  occ. eigenvalues --   -0.92979  -0.89261  -0.86912  -0.86109  -0.85418
 Alpha  occ. eigenvalues --   -0.83692  -0.83677  -0.83074  -0.81163  -0.80070
 Alpha  occ. eigenvalues --   -0.77686  -0.73596  -0.71158  -0.70059  -0.68841
 Alpha  occ. eigenvalues --   -0.67592  -0.66349  -0.65172  -0.63052  -0.62684
 Alpha  occ. eigenvalues --   -0.60787  -0.60271  -0.59002  -0.58533  -0.58134
 Alpha  occ. eigenvalues --   -0.57931  -0.56580  -0.56391  -0.55811  -0.54976
 Alpha  occ. eigenvalues --   -0.53107  -0.52671  -0.52006  -0.51909  -0.51453
 Alpha  occ. eigenvalues --   -0.51244  -0.50776  -0.50303  -0.49766  -0.49644
 Alpha  occ. eigenvalues --   -0.49377  -0.48948  -0.48699  -0.47946  -0.47512
 Alpha  occ. eigenvalues --   -0.47031  -0.46665  -0.46372  -0.45255  -0.44614
 Alpha  occ. eigenvalues --   -0.44116  -0.43940  -0.42872  -0.42201  -0.41879
 Alpha  occ. eigenvalues --   -0.41552  -0.39569  -0.39304  -0.39195  -0.33479
 Alpha  occ. eigenvalues --   -0.33180  -0.31043  -0.30644  -0.29802  -0.28534
 Alpha  occ. eigenvalues --   -0.27336  -0.26125
 Alpha virt. eigenvalues --    0.01061   0.03471   0.07546   0.09454   0.10039
 Alpha virt. eigenvalues --    0.11779   0.14861   0.16371   0.16523   0.17402
 Alpha virt. eigenvalues --    0.18053   0.19239   0.19515   0.19569   0.19925

 Mulliken charges:
               1
     1  C   -0.016854
     2  C    0.445532
     3  C    0.326342
     4  C   -0.203774
     5  C   -0.318970
     6  O   -0.615853
     7  C   -0.208813
     8  O   -0.688304
     9  H    0.477911
    10  C   -0.184503
    11  H    0.164462
    12  C    0.115699
    13  H    0.153985
    14  C   -0.160525
    15  H    0.181928
    16  H    0.164891
    17  H    0.210542
    18  N   -0.396636
    19  H    0.173252
    20  C   -0.373111
    21  C   -0.366817
    22  H    0.195857
    23  H    0.191371
    24  H    0.195379
    25  H    0.197165
    26  H    0.189545
    27  H    0.186977
    28  C   -0.033337
    29  C    0.430891
    30  C    0.317142
    31  C   -0.210555
    32  C   -0.322129
    33  O   -0.607298
    34  C   -0.210480
    35  O   -0.673025
    36  H    0.462142
    37  C   -0.193964
    38  H    0.201000
    39  C    0.107482
    40  H    0.177203
    41  C   -0.159209
    42  H    0.170182
    43  H    0.147620
    44  H    0.202460
    45  N   -0.399288
    46  H    0.160239
    47  C   -0.373578
    48  C   -0.359705
    49  H    0.202862
    50  H    0.176489
    51  H    0.199072
    52  H    0.192669
    53  H    0.178831
    54  H    0.179603
 Sum of Mulliken charges =   0.00000

 Dipole moment (field-independent basis, Debye):
    X=             -9.6727    Y=             -1.0684    Z=             -7.1497  Tot=             12.0756
 Quadrupole moment (field-independent basis, Debye-Ang):
   XX=           -132.5618   YY=           -150.4323   ZZ=           -166.8563
   XY=             12.7000   XZ=            -14.0532   YZ=             20.6882

 Normal termination of Gaussian 09 at Thu Sep 28 15:52:14 2017.
