 Gaussian 09, Revision D.01,
 Gaussian 09:  ES64L-G09RevD.01 24-Apr-2013

 ------------------------------------------
 #p wb97xd 6-311++G** td=(nstates=4) nosymm
 ------------------------------------------

 -----
 Title
 -----
 Symbolic Z-matrix:
 Charge =  0 Multiplicity = 1

                          Input orientation:
 ---------------------------------------------------------------------
 Center     Atomic      Atomic             Coordinates (Angstroms)
 Number     Number       Type             X           Y           Z
 ---------------------------------------------------------------------
      1          6           0       -5.706418   -6.012055  -16.455422
      2          1           0       -5.870111   -6.818024  -15.721653
      3          1           0       -6.661943   -5.719940  -16.907289
      4          1           0       -5.247600   -5.139557  -15.960401
      5          8           0       -4.879954   -6.464712  -17.530061
      6          6           0       -3.619904   -6.915799  -17.210325
      7          6           0       -3.090146   -6.965685  -15.929966
      8          6           0       -2.847094   -7.351359  -18.301788
      9          1           0       -3.687335   -6.632421  -15.087013
     10          6           0       -1.774234   -7.439275  -15.705824
     11          6           0       -1.567932   -7.833938  -18.109629
     12          1           0       -3.271652   -7.294310  -19.302973
     13          6           0       -1.007261   -7.877037  -16.824975
     14          6           0       -1.151752   -7.476864  -14.375708
     15          1           0       -0.971334   -8.169870  -18.957781
     16          8           0        0.255306   -8.340820  -16.673941
     17          6           0       -1.865848   -7.087653  -13.186955
     18          8           0        0.071433   -7.865727  -14.285922
     19          1           0        0.426305   -8.201161  -15.647053
     20          6           0       -1.263696   -7.140447  -11.962534
     21          1           0       -2.889634   -6.734134  -13.279178
     22          6           0       -1.771238   -6.743836  -10.688372
     23          1           0       -0.238584   -7.525420  -11.951774
     24          6           0       -3.046875   -6.166860  -10.481261
     25          6           0       -0.941370   -6.903038   -9.555013
     26          6           0       -3.457163   -5.763330   -9.232779
     27          1           0       -3.720492   -6.028400  -11.327139
     28          6           0       -1.334086   -6.505437   -8.295168
     29          1           0        0.044942   -7.347420   -9.692045
     30          1           0       -4.444735   -5.322529   -9.120091
     31          6           0       -2.607293   -5.907632   -8.098989
     32          1           0       -0.656250   -6.648531   -7.456539
     33          7           0       -3.003151   -5.478954   -6.868880
     34          6           0       -4.345337   -4.953627   -6.664801
     35          6           0       -2.151420   -5.705067   -5.712160
     36          1           0       -4.533677   -4.092307   -7.322319
     37          1           0       -4.447846   -4.629229   -5.624133
     38          1           0       -5.111906   -5.718541   -6.869759
     39          1           0       -2.628662   -5.289666   -4.818500
     40          1           0       -1.983211   -6.782630   -5.545970
     41          1           0       -1.169985   -5.219682   -5.841528
     42          6           0        0.134528   -8.781231   -4.030590
     43          1           0       -0.746474   -8.203850   -4.350885
     44          1           0       -0.154177   -9.827588   -3.882571
     45          1           0        0.916381   -8.716901   -4.802010
     46          8           0        0.603463   -8.320878   -2.756122
     47          6           0        0.953098   -7.000168   -2.644728
     48          6           0        1.178200   -6.555826   -1.326419
     49          6           0        1.081761   -6.113987   -3.704896
     50          6           0        1.439719   -5.226981   -1.066972
     51          1           0        1.102381   -7.275196   -0.510496
     52          6           0        1.374977   -4.748042   -3.468734
     53          1           0        0.941796   -6.471218   -4.722677
     54          6           0        1.499262   -4.297696   -2.121133
     55          1           0        1.566983   -4.870263   -0.045477
     56          6           0        1.582019   -3.771253   -4.547421
     57          8           0        1.679880   -2.998855   -1.827526
     58          6           0        1.710145   -4.196893   -5.927102
     59          8           0        1.698894   -2.534661   -4.235690
     60          1           0        1.700022   -2.539860   -2.761271
     61          6           0        1.959986   -3.299802   -6.927274
     62          1           0        1.662313   -5.262623   -6.148364
     63          6           0        2.182633   -3.581022   -8.316179
     64          1           0        1.994538   -2.243570   -6.637048
     65          6           0        2.377663   -2.518976   -9.226556
     66          6           0        2.204645   -4.889780   -8.854553
     67          6           0        2.553685   -2.733769  -10.579733
     68          1           0        2.361882   -1.496258   -8.843759
     69          6           0        2.381592   -5.126742  -10.199771
     70          1           0        2.080942   -5.745734   -8.192229
     71          6           0        2.538244   -4.049846  -11.116252
     72          1           0        2.664162   -1.879716  -11.243998
     73          1           0        2.391798   -6.157286  -10.547720
     74          7           0        2.651239   -4.280057  -12.454837
     75          6           0        2.441909   -5.613439  -13.001271
     76          6           0        2.909007   -3.182022  -13.367027
     77          1           0        3.292240   -6.284692  -12.789381
     78          1           0        2.298646   -5.535877  -14.082121
     79          1           0        1.531079   -6.070182  -12.588878
     80          1           0        2.038216   -2.510119  -13.445548
     81          1           0        3.112987   -3.583547  -14.365042
     82          1           0        3.783495   -2.597926  -13.035802
 ---------------------------------------------------------------------

 SCF Done:  E(RwB97XD) =  -1955.37328625     A.U. after   27 cycles

 Excitation energies and oscillator strengths:

 Excited state symmetry could not be determined.
 Excited State   1:      Singlet-?Sym    3.1380 eV  395.10 nm  f=0.0997  <S**2>=0.000
     155 -> 161        0.12526
     157 -> 159        0.54227
     158 -> 160       -0.37576
 This state for optimization and/or second-order correction.
 Total Energy, E(TD-HF/TD-KS) =  -1955.25796651
 Copying the excited state density for this state as the 1-particle RhoCI density.

 Excited state symmetry could not be determined.
 Excited State   2:      Singlet-?Sym    3.1975 eV  387.75 nm  f=1.6677  <S**2>=0.000
     155 -> 159        0.14313
     156 -> 160        0.17940
     156 -> 163        0.12907
     157 -> 159        0.35129
     158 -> 159        0.10283
     158 -> 160        0.50478

 Excited state symmetry could not be determined.
 Excited State   3:      Singlet-?Sym    3.5824 eV  346.09 nm  f=0.0264  <S**2>=0.000
     155 -> 159        0.49141
     156 -> 160       -0.41415
     157 -> 161        0.12745
     158 -> 163       -0.11103

 Excited state symmetry could not be determined.
 Excited State   4:      Singlet-?Sym    3.6801 eV  336.90 nm  f=0.4939  <S**2>=0.000
     155 -> 159        0.39440
     156 -> 160        0.45344
     157 -> 159       -0.14607
     158 -> 160       -0.18772
     158 -> 163        0.11579

 Alpha  occ. eigenvalues --  -19.28540 -19.28459 -19.24786 -19.24777 -19.24229
 Alpha  occ. eigenvalues --  -19.23681 -14.48151 -14.47223 -10.39086 -10.38623
 Alpha  occ. eigenvalues --  -10.36028 -10.35905 -10.35766 -10.35375 -10.35318
 Alpha  occ. eigenvalues --  -10.35279 -10.35072 -10.34811 -10.33811 -10.33576
 Alpha  occ. eigenvalues --  -10.32967 -10.32510 -10.32269 -10.32079 -10.31524
 Alpha  occ. eigenvalues --  -10.31451 -10.30855 -10.30772 -10.30761 -10.30700
 Alpha  occ. eigenvalues --  -10.30616 -10.30615 -10.30527 -10.30518 -10.30402
 Alpha  occ. eigenvalues --  -10.30359 -10.30266 -10.30085 -10.29829 -10.29823
 Alpha  occ. eigenvalues --  -10.29606 -10.29423 -10.29350 -10.29256  -1.17300
 Alpha  occ. eigenvalues --   -1.17189  -1.15644  -1.15601  -1.11724  -1.11716
 Alpha  occ. eigenvalues --   -1.08327  -1.07401  -0.97847  -0.97104  -0.96446
 Alpha  occ. eigenvalues --   -0.96253  -0.91818  -0.91180  -0.88472  -0.88154
 Alpha  occ. eigenvalues --   -0.87710  -0.86831  -0.85715  -0.85294  -0.85290
 Alpha  occ. eigenvalues --   -0.85046  -0.84358  -0.83386  -0.80643  -0.80447
 Alpha  occ. eigenvalues --   -0.79454  -0.78853  -0.75551  -0.75191  -0.73006
 Alpha  occ. eigenvalues --   -0.72512  -0.72257  -0.71604  -0.69468  -0.69162
 Alpha  occ. eigenvalues --   -0.68264  -0.67821  -0.65492  -0.64947  -0.63963
 Alpha  occ. eigenvalues --   -0.63308  -0.63093  -0.62699  -0.61307  -0.61283
 Alpha  occ. eigenvalues --   -0.60020  -0.59550  -0.59075  -0.58759  -0.58603
 Alpha  occ. eigenvalues --   -0.58281  -0.57934  -0.57061  -0.56733  -0.56603
 Alpha  occ. eigenvalues --   -0.56183  -0.55449  -0.55408  -0.54979  -0.54353
 Alpha  occ. eigenvalues --   -0.53812  -0.53439  -0.52994  -0.52856  -0.52687
 Alpha  occ. eigenvalues --   -0.52636  -0.52381  -0.52128  -0.51978  -0.51918
 Alpha  occ. eigenvalues --   -0.51344  -0.51125  -0.50546  -0.50431  -0.49709
 Alpha  occ. eigenvalues --   -0.49588  -0.49470  -0.48933  -0.48752  -0.48313
 Alpha  occ. eigenvalues --   -0.48045  -0.47749  -0.47544  -0.47282  -0.47128
 Alpha  occ. eigenvalues --   -0.47096  -0.46814  -0.46511  -0.45997  -0.45303
 Alpha  occ. eigenvalues --   -0.45132  -0.43957  -0.43696  -0.43301  -0.43053
 Alpha  occ. eigenvalues --   -0.43018  -0.42538  -0.41882  -0.41158  -0.38875
 Alpha  occ. eigenvalues --   -0.38845  -0.35862  -0.35783  -0.35206  -0.35036
 Alpha  occ. eigenvalues --   -0.34666  -0.34606  -0.34499  -0.34346  -0.28780
 Alpha  occ. eigenvalues --   -0.28409  -0.27342  -0.26764
 Alpha virt. eigenvalues --   -0.03871  -0.03265   0.02268   0.02457   0.02739
 Alpha virt. eigenvalues --    0.03143   0.03440   0.03619   0.03821   0.04621
 Alpha virt. eigenvalues --    0.04626   0.04912   0.05083   0.05346   0.05632

 Mulliken charges:
               1
     1  C   -0.411623
     2  H    0.170355
     3  H    0.215499
     4  H    0.172244
     5  O   -0.148648
     6  C   -0.795209
     7  C    0.199024
     8  C   -0.186819
     9  H    0.029690
    10  C    1.217386
    11  C   -0.396986
    12  H    0.247540
    13  C   -0.624735
    14  C    0.137275
    15  H    0.242065
    16  O   -0.313694
    17  C   -0.220994
    18  O   -0.344499
    19  H    0.408712
    20  C   -0.017492
    21  H   -0.121008
    22  C    0.481486
    23  H    0.247968
    24  C   -0.153383
    25  C   -0.211264
    26  C   -0.373971
    27  H    0.201575
    28  C    0.024977
    29  H    0.218863
    30  H    0.218695
    31  C   -0.375826
    32  H   -0.050387
    33  N    0.362355
    34  C   -0.324155
    35  C   -0.946347
    36  H    0.157973
    37  H    0.172272
    38  H    0.181972
    39  H    0.141346
    40  H    0.305843
    41  H    0.267101
    42  C   -0.425251
    43  H    0.151706
    44  H    0.215414
    45  H    0.183944
    46  O   -0.117163
    47  C   -0.836815
    48  C   -0.157135
    49  C    0.574609
    50  C   -0.291907
    51  H    0.245145
    52  C    0.888829
    53  H   -0.007038
    54  C   -0.457070
    55  H    0.245825
    56  C   -0.257375
    57  O   -0.338397
    58  C    0.067267
    59  O   -0.343282
    60  H    0.398747
    61  C   -0.085101
    62  H   -0.142857
    63  C    0.022644
    64  H    0.286984
    65  C   -0.268147
    66  C    0.046902
    67  C   -0.365376
    68  H    0.209781
    69  C    0.095283
    70  H    0.192550
    71  C   -0.427439
    72  H    0.192445
    73  H    0.204772
    74  N    0.197027
    75  C   -0.405263
    76  C   -0.378496
    77  H    0.210958
    78  H    0.179337
    79  H   -0.031416
    80  H    0.182342
    81  H    0.166685
    82  H    0.171156
 Sum of Mulliken charges =   0.00000

 Dipole moment (field-independent basis, Debye):
    X=             -5.3787    Y=              0.3030    Z=             -1.7046  Tot=              5.6505
 Quadrupole moment (field-independent basis, Debye-Ang):
   XX=           -237.5333   YY=           -278.0290   ZZ=           -281.3328
   XY=             24.9640   XZ=             31.9851   YZ=            -39.2598

 Normal termination of Gaussian 09 at Mon Nov  6 03:35:31 2017.
