 Gaussian 09, Revision D.01,
 Gaussian 09:  ES64L-G09RevD.01 24-Apr-2013

 ------------------------------------------
 #p wb97xd 6-311++G** td=(nstates=4) nosymm
 ------------------------------------------

 -----
 Title
 -----
 Symbolic Z-matrix:
 Charge =  0 Multiplicity = 1

                          Input orientation:
 ---------------------------------------------------------------------
 Center     Atomic      Atomic             Coordinates (Angstroms)
 Number     Number       Type             X           Y           Z
 ---------------------------------------------------------------------
      1          6           0       -1.437250    1.737391   -5.090015
      2          6           0       -2.092518    1.760412   -6.327449
      3          1           0       -1.982015    2.053463   -4.200181
      4          6           0       -0.108550    1.349894   -4.987871
      5          6           0       -1.383439    1.367706   -7.502291
      6          8           0       -3.384223    2.148685   -6.382283
      7          6           0        0.609255    0.982157   -6.138682
      8          1           0        0.364433    1.345964   -4.007958
      9          6           0       -2.077928    1.405596   -8.799930
     10          6           0       -0.034409    0.987679   -7.370556
     11          1           0       -3.603283    2.088332   -7.393147
     12          8           0        1.938158    0.624828   -6.139270
     13          6           0       -1.392868    1.031835  -10.014222
     14          8           0       -3.303921    1.776190   -8.822378
     15          1           0        0.547798    0.696891   -8.242350
     16          6           0        2.651358    0.800924   -4.906419
     17          6           0       -1.970686    1.177892  -11.240158
     18          1           0       -0.397200    0.602107   -9.935780
     19          1           0        2.505904    1.820143   -4.514101
     20          1           0        3.709475    0.655998   -5.149228
     21          1           0        2.326778    0.061456   -4.158875
     22          6           0       -1.442455    0.804607  -12.516617
     23          1           0       -2.971715    1.619772  -11.253795
     24          6           0       -2.247663    0.993537  -13.660685
     25          6           0       -0.165861    0.232584  -12.722303
     26          6           0       -1.854201    0.590184  -14.918195
     27          1           0       -3.218203    1.472900  -13.542240
     28          6           0        0.256689   -0.153628  -13.974088
     29          1           0        0.506110    0.091446  -11.874529
     30          1           0       -2.519861    0.758137  -15.761098
     31          6           0       -0.590160   -0.021376  -15.110249
     32          1           0        1.257633   -0.559351  -14.093437
     33          7           0       -0.203575   -0.470229  -16.338756
     34          6           0        1.093907   -1.098627  -16.525381
     35          6           0       -1.104228   -0.344850  -17.472543
     36          1           0        1.236868   -1.922466  -15.809531
     37          1           0        1.918393   -0.375831  -16.407131
     38          1           0        1.140789   -1.522162  -17.532281
     39          1           0       -2.062067   -0.851431  -17.273374
     40          1           0       -0.647642   -0.808814  -18.350308
     41          1           0       -1.309451    0.713232  -17.705173
 ---------------------------------------------------------------------

 SCF Done:  E(RwB97XD) =  -977.679203800     A.U. after   18 cycles

 Excitation energies and oscillator strengths:

 Excited state symmetry could not be determined.
 Excited State   1:      Singlet-?Sym    3.2415 eV  382.49 nm  f=0.8154  <S**2>=0.000
      78 -> 80         0.16087
      78 -> 82        -0.17746
      79 -> 80         0.64738
 This state for optimization and/or second-order correction.
 Total Energy, E(TD-HF/TD-KS) =  -977.560079815
 Copying the excited state density for this state as the 1-particle RhoCI density.

 Excited state symmetry could not be determined.
 Excited State   2:      Singlet-?Sym    3.6326 eV  341.31 nm  f=0.4086  <S**2>=0.000
      78 -> 80         0.63780
      79 -> 80        -0.17061
      79 -> 82        -0.17250

 Excited state symmetry could not be determined.
 Excited State   3:      Singlet-?Sym    3.7992 eV  326.34 nm  f=0.0060  <S**2>=0.000
      76 -> 80         0.66004
      76 -> 82        -0.12967

 Excited state symmetry could not be determined.
 Excited State   4:      Singlet-?Sym    4.5012 eV  275.45 nm  f=0.0457  <S**2>=0.000
      75 -> 80        -0.26250
      75 -> 82        -0.13345
      78 -> 82        -0.13570
      78 -> 85        -0.33168
      79 -> 82         0.21848
      79 -> 85         0.45078

 Alpha  occ. eigenvalues --  -19.27611 -19.24002 -19.23254 -14.47632 -10.38109
 Alpha  occ. eigenvalues --  -10.35290 -10.34855 -10.34492 -10.34036 -10.33534
 Alpha  occ. eigenvalues --  -10.33480 -10.31433 -10.30713 -10.30498 -10.29908
 Alpha  occ. eigenvalues --  -10.29877 -10.29872 -10.29828 -10.29533 -10.29503
 Alpha  occ. eigenvalues --  -10.28785 -10.28476  -1.16261  -1.14748  -1.11050
 Alpha  occ. eigenvalues --   -1.07852  -0.97112  -0.95566  -0.90958  -0.87452
 Alpha  occ. eigenvalues --   -0.86999  -0.85277  -0.84521  -0.84025  -0.79246
 Alpha  occ. eigenvalues --   -0.78852  -0.74834  -0.72285  -0.71488  -0.68931
 Alpha  occ. eigenvalues --   -0.67490  -0.64567  -0.63206  -0.62197  -0.60664
 Alpha  occ. eigenvalues --   -0.59168  -0.58450  -0.57777  -0.57687  -0.55767
 Alpha  occ. eigenvalues --   -0.55463  -0.54486  -0.53767  -0.52562  -0.52181
 Alpha  occ. eigenvalues --   -0.51430  -0.51409  -0.51231  -0.50870  -0.50046
 Alpha  occ. eigenvalues --   -0.49026  -0.48376  -0.48226  -0.47195  -0.46651
 Alpha  occ. eigenvalues --   -0.46332  -0.45631  -0.44457  -0.43531  -0.42535
 Alpha  occ. eigenvalues --   -0.41593  -0.41220  -0.38047  -0.35042  -0.34823
 Alpha  occ. eigenvalues --   -0.34129  -0.33719  -0.27735  -0.26719
 Alpha virt. eigenvalues --   -0.02788   0.02718   0.03213   0.04017   0.04261
 Alpha virt. eigenvalues --    0.04564   0.04710   0.05710   0.06189   0.06251
 Alpha virt. eigenvalues --    0.06629   0.07513   0.07727   0.07904   0.08015

 Mulliken charges:
               1
     1  C   -0.323324
     2  C   -0.433739
     3  H    0.242703
     4  C    0.211229
     5  C    1.288728
     6  O   -0.339937
     7  C   -0.739996
     8  H    0.213123
     9  C    0.166475
    10  C   -1.227785
    11  H    0.391843
    12  O   -0.139332
    13  C    0.348631
    14  O   -0.349742
    15  H    0.209290
    16  C   -0.374773
    17  C    0.249336
    18  H   -0.157538
    19  H    0.152450
    20  H    0.205425
    21  H    0.165551
    22  C    0.736777
    23  H    0.234327
    24  C   -0.286961
    25  C   -0.460105
    26  C   -0.243049
    27  H    0.215677
    28  C   -0.385591
    29  H    0.151404
    30  H    0.186363
    31  C   -0.430874
    32  H    0.222328
    33  N    0.061318
    34  C   -0.391577
    35  C   -0.386639
    36  H    0.163969
    37  H    0.190167
    38  H    0.152997
    39  H    0.175409
    40  H    0.157774
    41  H    0.177666
 Sum of Mulliken charges =   0.00000

 Dipole moment (field-independent basis, Debye):
    X=              4.9660    Y=             -2.3872    Z=             -6.2781  Tot=              8.3531
 Quadrupole moment (field-independent basis, Debye-Ang):
   XX=           -139.1160   YY=           -138.2844   ZZ=             52.2087
   XY=              5.5911   XZ=            -30.2873   YZ=             27.1575

 Normal termination of Gaussian 09 at Sat Nov  4 12:47:25 2017.
