 Gaussian 09, Revision D.01,
 Gaussian 09:  ES64L-G09RevD.01 24-Apr-2013

 ------------------------------------------
 #p wb97xd 6-311++G** td=(nstates=4) nosymm
 ------------------------------------------

 -----
 Title
 -----
 Symbolic Z-matrix:
 Charge =  0 Multiplicity = 1

                          Input orientation:
 ---------------------------------------------------------------------
 Center     Atomic      Atomic             Coordinates (Angstroms)
 Number     Number       Type             X           Y           Z
 ---------------------------------------------------------------------
      1          6           0        0.134528   -8.781231   -4.030590
      2          1           0       -0.746474   -8.203850   -4.350885
      3          1           0       -0.154177   -9.827588   -3.882571
      4          1           0        0.916381   -8.716901   -4.802010
      5          8           0        0.603463   -8.320878   -2.756122
      6          6           0        0.953098   -7.000168   -2.644728
      7          6           0        1.178200   -6.555826   -1.326419
      8          6           0        1.081761   -6.113987   -3.704896
      9          6           0        1.439719   -5.226981   -1.066972
     10          1           0        1.102381   -7.275196   -0.510496
     11          6           0        1.374977   -4.748042   -3.468734
     12          1           0        0.941796   -6.471218   -4.722677
     13          6           0        1.499262   -4.297696   -2.121133
     14          1           0        1.566983   -4.870263   -0.045477
     15          6           0        1.582019   -3.771253   -4.547421
     16          8           0        1.679880   -2.998855   -1.827526
     17          6           0        1.710145   -4.196893   -5.927102
     18          8           0        1.698894   -2.534661   -4.235690
     19          1           0        1.700022   -2.539860   -2.761271
     20          6           0        1.959986   -3.299802   -6.927274
     21          1           0        1.662313   -5.262623   -6.148364
     22          6           0        2.182633   -3.581022   -8.316179
     23          1           0        1.994538   -2.243570   -6.637048
     24          6           0        2.377663   -2.518976   -9.226556
     25          6           0        2.204645   -4.889780   -8.854553
     26          6           0        2.553685   -2.733769  -10.579733
     27          1           0        2.361882   -1.496258   -8.843759
     28          6           0        2.381592   -5.126742  -10.199771
     29          1           0        2.080942   -5.745734   -8.192229
     30          6           0        2.538244   -4.049846  -11.116252
     31          1           0        2.664162   -1.879716  -11.243998
     32          1           0        2.391798   -6.157286  -10.547720
     33          7           0        2.651239   -4.280057  -12.454837
     34          6           0        2.441909   -5.613439  -13.001271
     35          6           0        2.909007   -3.182022  -13.367027
     36          1           0        3.292240   -6.284692  -12.789381
     37          1           0        2.298646   -5.535877  -14.082121
     38          1           0        1.531079   -6.070182  -12.588878
     39          1           0        2.038216   -2.510119  -13.445548
     40          1           0        3.112987   -3.583547  -14.365042
     41          1           0        3.783495   -2.597926  -13.035802
 ---------------------------------------------------------------------

 SCF Done:  E(RwB97XD) =  -977.679411556     A.U. after   19 cycles

 Excitation energies and oscillator strengths:

 Excited state symmetry could not be determined.
 Excited State   1:      Singlet-?Sym    3.2181 eV  385.27 nm  f=0.8554  <S**2>=0.000
      78 -> 80         0.12998
      78 -> 82         0.16800
      79 -> 80         0.65822
 This state for optimization and/or second-order correction.
 Total Energy, E(TD-HF/TD-KS) =  -977.561149340
 Copying the excited state density for this state as the 1-particle RhoCI density.

 Excited state symmetry could not be determined.
 Excited State   2:      Singlet-?Sym    3.6761 eV  337.27 nm  f=0.3366  <S**2>=0.000
      74 -> 80        -0.10133
      78 -> 80         0.64161
      79 -> 80        -0.13679
      79 -> 82         0.17673

 Excited state symmetry could not be determined.
 Excited State   3:      Singlet-?Sym    3.8066 eV  325.70 nm  f=0.0066  <S**2>=0.000
      76 -> 80         0.64630
      76 -> 82         0.12949
      77 -> 80        -0.13977

 Excited state symmetry could not be determined.
 Excited State   4:      Singlet-?Sym    4.4811 eV  276.68 nm  f=0.0457  <S**2>=0.000
      75 -> 80        -0.25953
      75 -> 82         0.12884
      78 -> 82         0.13893
      78 -> 85        -0.33482
      79 -> 82        -0.22700
      79 -> 84        -0.10132
      79 -> 85         0.43449

 Alpha  occ. eigenvalues --  -19.27777 -19.24209 -19.23225 -14.47742 -10.38129
 Alpha  occ. eigenvalues --  -10.35479 -10.35132 -10.34583 -10.34238 -10.33696
 Alpha  occ. eigenvalues --  -10.33595 -10.31641 -10.30806 -10.30775 -10.30106
 Alpha  occ. eigenvalues --  -10.29983 -10.29872 -10.29822 -10.29790 -10.29613
 Alpha  occ. eigenvalues --  -10.29103 -10.28591  -1.16538  -1.15052  -1.11196
 Alpha  occ. eigenvalues --   -1.07987  -0.97167  -0.95568  -0.91008  -0.87667
 Alpha  occ. eigenvalues --   -0.87058  -0.85024  -0.84566  -0.84123  -0.79961
 Alpha  occ. eigenvalues --   -0.78808  -0.74842  -0.72324  -0.71635  -0.68798
 Alpha  occ. eigenvalues --   -0.67604  -0.64701  -0.63390  -0.62348  -0.60694
 Alpha  occ. eigenvalues --   -0.59399  -0.58333  -0.58153  -0.57834  -0.55916
 Alpha  occ. eigenvalues --   -0.55530  -0.54731  -0.53660  -0.52625  -0.52308
 Alpha  occ. eigenvalues --   -0.52013  -0.51545  -0.51385  -0.50949  -0.50140
 Alpha  occ. eigenvalues --   -0.48879  -0.48657  -0.48148  -0.47422  -0.46659
 Alpha  occ. eigenvalues --   -0.46397  -0.45809  -0.44619  -0.43170  -0.42596
 Alpha  occ. eigenvalues --   -0.42259  -0.41304  -0.38149  -0.35093  -0.34934
 Alpha  occ. eigenvalues --   -0.34154  -0.33722  -0.27978  -0.26713
 Alpha virt. eigenvalues --   -0.02875   0.02525   0.03143   0.03467   0.04283
 Alpha virt. eigenvalues --    0.04379   0.04952   0.05642   0.05829   0.06345
 Alpha virt. eigenvalues --    0.06463   0.07222   0.07714   0.07831   0.08083

 Mulliken charges:
               1
     1  C   -0.402415
     2  H    0.181245
     3  H    0.203678
     4  H    0.155660
     5  O   -0.139694
     6  C   -0.937789
     7  C   -0.297973
     8  C    0.364313
     9  C   -0.341288
    10  H    0.242810
    11  C    1.229875
    12  H    0.080280
    13  C   -0.584988
    14  H    0.240589
    15  C   -0.023540
    16  O   -0.342447
    17  C    0.143448
    18  O   -0.350681
    19  H    0.404539
    20  C    0.125770
    21  H   -0.225105
    22  C    0.805975
    23  H    0.250093
    24  C   -0.272505
    25  C   -0.490695
    26  C   -0.250833
    27  H    0.215845
    28  C   -0.332972
    29  H    0.157342
    30  C   -0.527378
    31  H    0.189236
    32  H    0.227874
    33  N    0.091062
    34  C   -0.418256
    35  C   -0.403502
    36  H    0.190223
    37  H    0.156896
    38  H    0.167073
    39  H    0.188978
    40  H    0.160373
    41  H    0.168881
 Sum of Mulliken charges =   0.00000

 Dipole moment (field-independent basis, Debye):
    X=              0.0133    Y=             -3.2792    Z=             -9.6065  Tot=             10.1508
 Quadrupole moment (field-independent basis, Debye-Ang):
   XX=           -134.4400   YY=            -94.7342   ZZ=             21.0257
   XY=             -1.1731   XZ=            -22.7942   YZ=             56.2512

 Normal termination of Gaussian 09 at Mon Nov  6 06:46:44 2017.
