 Gaussian 09, Revision D.01,
 Gaussian 09:  ES64L-G09RevD.01 24-Apr-2013

 ------------------------------------------
 #p wb97xd 6-311++G** td=(nstates=4) nosymm
 ------------------------------------------

 -----
 Title
 -----
 Symbolic Z-matrix:
 Charge =  0 Multiplicity = 1

                          Input orientation:
 ---------------------------------------------------------------------
 Center     Atomic      Atomic             Coordinates (Angstroms)
 Number     Number       Type             X           Y           Z
 ---------------------------------------------------------------------
      1          6           0       -3.085431   -3.546101  -18.689950
      2          6           0       -3.803236   -3.178364  -17.539139
      3          1           0       -3.558414   -3.542171  -19.669863
      4          6           0       -1.756731   -3.933599  -18.587806
      5          6           0       -3.159572   -3.183886  -16.307265
      6          8           0       -5.132139   -2.821035  -17.538551
      7          6           0       -1.101463   -3.956620  -17.350372
      8          1           0       -1.211966   -4.249670  -19.477640
      9          1           0       -3.741779   -2.893099  -15.435471
     10          6           0       -1.810542   -3.563913  -16.175530
     11          6           0       -5.845340   -2.997131  -18.771402
     12          8           0        0.190242   -4.344893  -17.295538
     13          6           0       -1.116053   -3.601804  -14.877891
     14          1           0       -5.699885   -4.016350  -19.163720
     15          1           0       -6.903456   -2.852205  -18.528593
     16          1           0       -5.520759   -2.257664  -19.518946
     17          1           0        0.409302   -4.284539  -16.284674
     18          6           0       -1.801113   -3.228043  -13.663599
     19          8           0        0.109940   -3.972397  -14.855443
     20          1           0       -2.796781   -2.798314  -13.742041
     21          6           0       -1.223295   -3.374099  -12.437663
     22          6           0       -1.751526   -3.000815  -11.161204
     23          1           0       -0.222266   -3.815979  -12.424026
     24          6           0       -3.028120   -2.428791  -10.955517
     25          6           0       -0.946318   -3.189744  -10.017136
     26          6           0       -3.450669   -2.042579   -9.703733
     27          1           0       -3.700091   -2.287654  -11.803292
     28          6           0       -1.339780   -2.786392   -8.759626
     29          1           0        0.024222   -3.669107  -10.135581
     30          6           0       -2.603820   -2.174831   -8.567571
     31          1           0       -4.451614   -1.636857   -9.584384
     32          1           0       -0.674120   -2.954344   -7.916723
     33          7           0       -2.990406   -1.725978   -7.339064
     34          6           0       -4.287887   -1.097580   -7.152439
     35          6           0       -2.089753   -1.851358   -6.205278
     36          1           0       -5.112373   -1.820376   -7.270690
     37          1           0       -4.334769   -0.674045   -6.145539
     38          1           0       -4.430849   -0.273741   -7.868291
     39          1           0       -1.131914   -1.344777   -6.404447
     40          1           0       -2.546339   -1.387393   -5.327513
     41          1           0       -1.884530   -2.909439   -5.972648
     42          6           0       -5.706418   -6.012055  -16.455422
     43          1           0       -5.870111   -6.818024  -15.721653
     44          1           0       -6.661943   -5.719940  -16.907289
     45          1           0       -5.247600   -5.139557  -15.960401
     46          8           0       -4.879954   -6.464712  -17.530061
     47          6           0       -3.619904   -6.915799  -17.210325
     48          6           0       -3.090146   -6.965685  -15.929966
     49          6           0       -2.847094   -7.351359  -18.301788
     50          1           0       -3.687335   -6.632421  -15.087013
     51          6           0       -1.774234   -7.439275  -15.705824
     52          6           0       -1.567932   -7.833938  -18.109629
     53          1           0       -3.271652   -7.294310  -19.302973
     54          6           0       -1.007261   -7.877037  -16.824975
     55          6           0       -1.151752   -7.476864  -14.375708
     56          1           0       -0.971334   -8.169870  -18.957781
     57          8           0        0.255306   -8.340820  -16.673941
     58          6           0       -1.865848   -7.087653  -13.186955
     59          8           0        0.071433   -7.865727  -14.285922
     60          1           0        0.426305   -8.201161  -15.647053
     61          6           0       -1.263696   -7.140447  -11.962534
     62          1           0       -2.889634   -6.734134  -13.279178
     63          6           0       -1.771238   -6.743836  -10.688372
     64          1           0       -0.238584   -7.525420  -11.951774
     65          6           0       -3.046875   -6.166860  -10.481261
     66          6           0       -0.941370   -6.903038   -9.555013
     67          6           0       -3.457163   -5.763330   -9.232779
     68          1           0       -3.720492   -6.028400  -11.327139
     69          6           0       -1.334086   -6.505437   -8.295168
     70          1           0        0.044942   -7.347420   -9.692045
     71          1           0       -4.444735   -5.322529   -9.120091
     72          6           0       -2.607293   -5.907632   -8.098989
     73          1           0       -0.656250   -6.648531   -7.456539
     74          7           0       -3.003151   -5.478954   -6.868880
     75          6           0       -4.345337   -4.953627   -6.664801
     76          6           0       -2.151420   -5.705067   -5.712160
     77          1           0       -4.533677   -4.092307   -7.322319
     78          1           0       -4.447846   -4.629229   -5.624133
     79          1           0       -5.111906   -5.718541   -6.869759
     80          1           0       -2.628662   -5.289666   -4.818500
     81          1           0       -1.983211   -6.782630   -5.545970
     82          1           0       -1.169985   -5.219682   -5.841528
 ---------------------------------------------------------------------

 SCF Done:  E(RwB97XD) =  -1955.38909849     A.U. after   26 cycles

 Excitation energies and oscillator strengths:

 Excited state symmetry could not be determined.
 Excited State   1:      Singlet-?Sym    3.0389 eV  407.99 nm  f=0.0049  <S**2>=0.000
     157 -> 159        0.31832
     157 -> 160       -0.23716
     158 -> 159        0.43230
     158 -> 160        0.30492
 This state for optimization and/or second-order correction.
 Total Energy, E(TD-HF/TD-KS) =  -1955.27742026
 Copying the excited state density for this state as the 1-particle RhoCI density.

 Excited state symmetry could not be determined.
 Excited State   2:      Singlet-?Sym    3.2721 eV  378.92 nm  f=0.9734  <S**2>=0.000
     156 -> 160        0.13835
     157 -> 159        0.49760
     157 -> 160       -0.10382
     158 -> 159       -0.19122
     158 -> 160       -0.35728

 Excited state symmetry could not be determined.
 Excited State   3:      Singlet-?Sym    3.4793 eV  356.35 nm  f=0.0155  <S**2>=0.000
     155 -> 159       -0.15107
     155 -> 160        0.24175
     156 -> 159        0.51465
     157 -> 160        0.19827
     158 -> 159        0.14346
     158 -> 160       -0.13985

 Excited state symmetry could not be determined.
 Excited State   4:      Singlet-?Sym    3.6828 eV  336.65 nm  f=0.3759  <S**2>=0.000
     152 -> 159       -0.18398
     152 -> 160        0.10531
     155 -> 159        0.12436
     155 -> 160        0.10411
     156 -> 159        0.11993
     156 -> 160        0.20137
     157 -> 159        0.13091
     158 -> 159       -0.37162
     158 -> 160        0.41454

 Alpha  occ. eigenvalues --  -19.27465 -19.27055 -19.23395 -19.22842 -19.22722
 Alpha  occ. eigenvalues --  -19.22226 -14.48036 -14.47872 -10.37714 -10.37168
 Alpha  occ. eigenvalues --  -10.35442 -10.35221 -10.34374 -10.34224 -10.34144
 Alpha  occ. eigenvalues --  -10.34111 -10.34073 -10.34016 -10.33936 -10.33746
 Alpha  occ. eigenvalues --  -10.33619 -10.33316 -10.31234 -10.30821 -10.30738
 Alpha  occ. eigenvalues --  -10.30455 -10.30448 -10.30370 -10.30063 -10.29957
 Alpha  occ. eigenvalues --  -10.29662 -10.29661 -10.29649 -10.29534 -10.29444
 Alpha  occ. eigenvalues --  -10.29417 -10.29180 -10.28891 -10.28839 -10.28721
 Alpha  occ. eigenvalues --  -10.28698 -10.28321 -10.28020 -10.27516  -1.16088
 Alpha  occ. eigenvalues --   -1.15694  -1.14171  -1.13543  -1.10501  -1.09629
 Alpha  occ. eigenvalues --   -1.08339  -1.08061  -0.97237  -0.96793  -0.95156
 Alpha  occ. eigenvalues --   -0.94608  -0.90938  -0.90474  -0.87303  -0.87179
 Alpha  occ. eigenvalues --   -0.87024  -0.86841  -0.85100  -0.84562  -0.84544
 Alpha  occ. eigenvalues --   -0.84328  -0.84209  -0.83559  -0.79538  -0.79330
 Alpha  occ. eigenvalues --   -0.78500  -0.78186  -0.74663  -0.74110  -0.72280
 Alpha  occ. eigenvalues --   -0.71872  -0.71448  -0.71101  -0.68777  -0.68194
 Alpha  occ. eigenvalues --   -0.67302  -0.66776  -0.64570  -0.64280  -0.63357
 Alpha  occ. eigenvalues --   -0.63038  -0.61990  -0.61675  -0.60279  -0.59593
 Alpha  occ. eigenvalues --   -0.59404  -0.59247  -0.59069  -0.58373  -0.57777
 Alpha  occ. eigenvalues --   -0.57491  -0.57229  -0.57043  -0.56305  -0.55664
 Alpha  occ. eigenvalues --   -0.55421  -0.54456  -0.54344  -0.54133  -0.53704
 Alpha  occ. eigenvalues --   -0.53098  -0.52846  -0.52650  -0.52486  -0.51915
 Alpha  occ. eigenvalues --   -0.51518  -0.51386  -0.51223  -0.51162  -0.51009
 Alpha  occ. eigenvalues --   -0.50774  -0.50551  -0.50239  -0.50097  -0.49562
 Alpha  occ. eigenvalues --   -0.49319  -0.48901  -0.48737  -0.48590  -0.47855
 Alpha  occ. eigenvalues --   -0.47183  -0.46970  -0.46659  -0.46454  -0.46283
 Alpha  occ. eigenvalues --   -0.45541  -0.45491  -0.45177  -0.45079  -0.43907
 Alpha  occ. eigenvalues --   -0.43410  -0.43114  -0.42571  -0.42541  -0.41880
 Alpha  occ. eigenvalues --   -0.41786  -0.41512  -0.41238  -0.40503  -0.37604
 Alpha  occ. eigenvalues --   -0.37127  -0.35466  -0.35191  -0.34328  -0.34214
 Alpha  occ. eigenvalues --   -0.33840  -0.33625  -0.33082  -0.32148  -0.27945
 Alpha  occ. eigenvalues --   -0.27241  -0.26450  -0.25925
 Alpha virt. eigenvalues --   -0.02823  -0.01982   0.01763   0.02916   0.03080
 Alpha virt. eigenvalues --    0.03483   0.03842   0.03875   0.04136   0.04258
 Alpha virt. eigenvalues --    0.04766   0.04929   0.05302   0.05478   0.05851

 Mulliken charges:
               1
     1  C   -0.105314
     2  C   -0.361389
     3  H    0.213632
     4  C   -0.312602
     5  C   -0.306768
     6  O   -0.041531
     7  C   -0.245821
     8  H    0.252223
     9  H    0.274061
    10  C    0.490712
    11  C   -0.398031
    12  O   -0.179808
    13  C   -0.032498
    14  H    0.176993
    15  H    0.190119
    16  H    0.168690
    17  H    0.353874
    18  C   -0.428422
    19  O   -0.237811
    20  H    0.013004
    21  C   -0.052490
    22  C    0.585294
    23  H    0.292311
    24  C   -0.283830
    25  C   -0.222568
    26  C   -0.537628
    27  H    0.209196
    28  C   -0.425524
    29  H    0.192319
    30  C   -0.138473
    31  H    0.189868
    32  H    0.199158
    33  N    0.117710
    34  C   -0.302267
    35  C   -0.351694
    36  H    0.179014
    37  H    0.158292
    38  H    0.175505
    39  H    0.187866
    40  H    0.172413
    41  H    0.149347
    42  C   -0.420096
    43  H    0.196657
    44  H    0.191764
    45  H    0.177903
    46  O   -0.060757
    47  C   -0.284938
    48  C   -0.137641
    49  C    0.245533
    50  H    0.152745
    51  C    0.700830
    52  C   -0.376611
    53  H    0.240802
    54  C   -0.474805
    55  C   -0.468009
    56  H    0.245829
    57  O   -0.282290
    58  C    0.001127
    59  O   -0.290036
    60  H    0.366826
    61  C   -0.154413
    62  H   -0.072802
    63  C    0.231871
    64  H    0.292149
    65  C   -0.354195
    66  C   -0.441320
    67  C   -0.106655
    68  H    0.224642
    69  C   -0.361370
    70  H    0.209536
    71  H    0.178952
    72  C    0.060023
    73  H    0.194489
    74  N    0.106175
    75  C   -0.358265
    76  C   -0.311355
    77  H    0.075187
    78  H    0.164703
    79  H    0.205527
    80  H    0.154459
    81  H    0.193213
    82  H    0.167484
 Sum of Mulliken charges =   0.00000

 Dipole moment (field-independent basis, Debye):
    X=             -8.8562    Y=              5.2582    Z=             12.9259  Tot=             16.5275
 Quadrupole moment (field-independent basis, Debye-Ang):
   XX=           -220.2670   YY=           -326.4794   ZZ=           -519.5006
   XY=             29.4111   XZ=            105.6422   YZ=           -125.8719

 Normal termination of Gaussian 09 at Fri Nov  3 16:16:59 2017.
