 Gaussian 09, Revision D.01,
 Gaussian 09:  ES64L-G09RevD.01 24-Apr-2013

 ------------------------------------------
 #p wb97xd 6-311++G** td=(nstates=4) nosymm
 ------------------------------------------

 -----
 Title
 -----
 Symbolic Z-matrix:
 Charge =  0 Multiplicity = 1

                          Input orientation:
 ---------------------------------------------------------------------
 Center     Atomic      Atomic             Coordinates (Angstroms)
 Number     Number       Type             X           Y           Z
 ---------------------------------------------------------------------
      1          6           0       -5.706418   -6.012055  -16.455422
      2          1           0       -5.870111   -6.818024  -15.721653
      3          1           0       -6.661943   -5.719940  -16.907289
      4          1           0       -5.247600   -5.139557  -15.960401
      5          8           0       -4.879954   -6.464712  -17.530061
      6          6           0       -3.619904   -6.915799  -17.210325
      7          6           0       -3.090146   -6.965685  -15.929966
      8          6           0       -2.847094   -7.351359  -18.301788
      9          1           0       -3.687335   -6.632421  -15.087013
     10          6           0       -1.774234   -7.439275  -15.705824
     11          6           0       -1.567932   -7.833938  -18.109629
     12          1           0       -3.271652   -7.294310  -19.302973
     13          6           0       -1.007261   -7.877037  -16.824975
     14          6           0       -1.151752   -7.476864  -14.375708
     15          1           0       -0.971334   -8.169870  -18.957781
     16          8           0        0.255306   -8.340820  -16.673941
     17          6           0       -1.865848   -7.087653  -13.186955
     18          8           0        0.071433   -7.865727  -14.285922
     19          1           0        0.426305   -8.201161  -15.647053
     20          6           0       -1.263696   -7.140447  -11.962534
     21          1           0       -2.889634   -6.734134  -13.279178
     22          6           0       -1.771238   -6.743836  -10.688372
     23          1           0       -0.238584   -7.525420  -11.951774
     24          6           0       -3.046875   -6.166860  -10.481261
     25          6           0       -0.941370   -6.903038   -9.555013
     26          6           0       -3.457163   -5.763330   -9.232779
     27          1           0       -3.720492   -6.028400  -11.327139
     28          6           0       -1.334086   -6.505437   -8.295168
     29          1           0        0.044942   -7.347420   -9.692045
     30          1           0       -4.444735   -5.322529   -9.120091
     31          6           0       -2.607293   -5.907632   -8.098989
     32          1           0       -0.656250   -6.648531   -7.456539
     33          7           0       -3.003151   -5.478954   -6.868880
     34          6           0       -4.345337   -4.953627   -6.664801
     35          6           0       -2.151420   -5.705067   -5.712160
     36          1           0       -4.533677   -4.092307   -7.322319
     37          1           0       -4.447846   -4.629229   -5.624133
     38          1           0       -5.111906   -5.718541   -6.869759
     39          1           0       -2.628662   -5.289666   -4.818500
     40          1           0       -1.983211   -6.782630   -5.545970
     41          1           0       -1.169985   -5.219682   -5.841528
 ---------------------------------------------------------------------

 SCF Done:  E(RwB97XD) =  -977.679018457     A.U. after   17 cycles

 Excitation energies and oscillator strengths:

 Excited state symmetry could not be determined.
 Excited State   1:      Singlet-?Sym    3.2118 eV  386.03 nm  f=0.8937  <S**2>=0.000
      78 -> 80        -0.11633
      78 -> 82        -0.16517
      79 -> 80         0.66118
 This state for optimization and/or second-order correction.
 Total Energy, E(TD-HF/TD-KS) =  -977.560986653
 Copying the excited state density for this state as the 1-particle RhoCI density.

 Excited state symmetry could not be determined.
 Excited State   2:      Singlet-?Sym    3.6737 eV  337.49 nm  f=0.3348  <S**2>=0.000
      78 -> 80         0.64460
      79 -> 80         0.12455
      79 -> 82        -0.17607

 Excited state symmetry could not be determined.
 Excited State   3:      Singlet-?Sym    3.7908 eV  327.07 nm  f=0.0059  <S**2>=0.000
      76 -> 80         0.66106
      76 -> 82         0.13657

 Excited state symmetry could not be determined.
 Excited State   4:      Singlet-?Sym    4.4905 eV  276.11 nm  f=0.0458  <S**2>=0.000
      74 -> 80        -0.19133
      75 -> 80         0.17279
      78 -> 82        -0.14364
      78 -> 84        -0.11262
      78 -> 85         0.32595
      79 -> 82        -0.23139
      79 -> 84        -0.14518
      79 -> 85         0.41885

 Alpha  occ. eigenvalues --  -19.27785 -19.23798 -19.23181 -14.47900 -10.38106
 Alpha  occ. eigenvalues --  -10.35593 -10.35025 -10.34594 -10.34232 -10.33787
 Alpha  occ. eigenvalues --  -10.33718 -10.31536 -10.30993 -10.30804 -10.30124
 Alpha  occ. eigenvalues --  -10.30112 -10.29891 -10.29845 -10.29821 -10.29609
 Alpha  occ. eigenvalues --  -10.29010 -10.28535  -1.16515  -1.14613  -1.10690
 Alpha  occ. eigenvalues --   -1.08137  -0.97316  -0.95626  -0.91102  -0.87728
 Alpha  occ. eigenvalues --   -0.87291  -0.85121  -0.84531  -0.84245  -0.80035
 Alpha  occ. eigenvalues --   -0.78892  -0.74839  -0.72421  -0.71669  -0.68828
 Alpha  occ. eigenvalues --   -0.67556  -0.64811  -0.63417  -0.62439  -0.60467
 Alpha  occ. eigenvalues --   -0.59485  -0.58391  -0.58043  -0.57871  -0.55974
 Alpha  occ. eigenvalues --   -0.55708  -0.54783  -0.53682  -0.52923  -0.52238
 Alpha  occ. eigenvalues --   -0.51908  -0.51529  -0.51212  -0.51130  -0.50283
 Alpha  occ. eigenvalues --   -0.48791  -0.48660  -0.48384  -0.47391  -0.46472
 Alpha  occ. eigenvalues --   -0.46362  -0.45790  -0.44336  -0.43175  -0.42624
 Alpha  occ. eigenvalues --   -0.42300  -0.41378  -0.38066  -0.35167  -0.35122
 Alpha  occ. eigenvalues --   -0.34083  -0.33726  -0.28074  -0.26770
 Alpha virt. eigenvalues --   -0.02983   0.02484   0.03062   0.03421   0.04221
 Alpha virt. eigenvalues --    0.04313   0.04912   0.05683   0.06073   0.06264
 Alpha virt. eigenvalues --    0.06446   0.07339   0.07749   0.07931   0.08062

 Mulliken charges:
               1
     1  C   -0.405299
     2  H    0.169435
     3  H    0.211051
     4  H    0.173040
     5  O   -0.149590
     6  C   -1.125635
     7  C    0.540223
     8  C   -0.224749
     9  H    0.029419
    10  C    1.257667
    11  C   -0.304304
    12  H    0.247668
    13  C   -0.485175
    14  C   -0.252657
    15  H    0.243664
    16  O   -0.370338
    17  C    0.064062
    18  O   -0.354754
    19  H    0.425744
    20  C    0.216133
    21  H   -0.196640
    22  C    0.857750
    23  H    0.252160
    24  C   -0.423249
    25  C   -0.225411
    26  C   -0.293673
    27  H    0.174760
    28  C   -0.319807
    29  H    0.214962
    30  H    0.228501
    31  C   -0.673094
    32  H    0.192800
    33  N    0.069928
    34  C   -0.387145
    35  C   -0.400363
    36  H    0.164282
    37  H    0.157027
    38  H    0.186638
    39  H    0.160058
    40  H    0.182353
    41  H    0.172556
 Sum of Mulliken charges =   0.00000

 Dipole moment (field-independent basis, Debye):
    X=             -5.1049    Y=              3.2661    Z=              8.5225  Tot=             10.4575
 Quadrupole moment (field-independent basis, Debye-Ang):
   XX=           -105.8570   YY=           -179.6708   ZZ=           -316.0119
   XY=             24.7143   XZ=             51.6453   YZ=            -95.8087

 Normal termination of Gaussian 09 at Mon Nov  6 05:10:45 2017.
