 Gaussian 09, Revision D.01,
 Gaussian 09:  ES64L-G09RevD.01 24-Apr-2013

 ------------------------------------------
 #p wb97xd 6-311++G** td=(nstates=4) nosymm
 ------------------------------------------

 -----
 Title
 -----
 Symbolic Z-matrix:
 Charge =  0 Multiplicity = 1

                          Input orientation:
 ---------------------------------------------------------------------
 Center     Atomic      Atomic             Coordinates (Angstroms)
 Number     Number       Type             X           Y           Z
 ---------------------------------------------------------------------
      1          6           0       -3.632763   -9.277855   -6.467496
      2          6           0       -4.162522   -9.227970   -7.747855
      3          6           0       -4.405573   -8.842295   -5.376032
      4          8           0       -2.372714   -9.728943   -6.147760
      5          6           0       -5.478434   -8.754379   -7.971997
      6          1           0       -3.565333   -9.561233   -8.590808
      7          6           0       -5.684736   -8.359716   -5.568192
      8          1           0       -3.981016   -8.899345   -4.374849
      9          6           0       -1.546250  -10.181599   -7.222399
     10          6           0       -6.245408   -8.316618   -6.852846
     11          6           0       -6.100916   -8.716791   -9.302113
     12          1           0       -6.281334   -8.023784   -4.720041
     13          1           0       -1.382557   -9.375631   -7.956169
     14          1           0       -0.590725  -10.473715   -6.770532
     15          1           0       -2.005068  -11.054098   -7.717419
     16          8           0       -7.507973   -7.852834   -7.003880
     17          6           0       -5.386820   -9.106002  -10.490867
     18          8           0       -7.324100   -8.327927   -9.391898
     19          1           0       -7.678973   -7.992494   -8.030767
     20          6           0       -5.988972   -9.053207  -11.715286
     21          1           0       -4.363033   -9.459520  -10.398643
     22          6           0       -5.481430   -9.449819  -12.989449
     23          1           0       -7.014084   -8.668235  -11.726047
     24          6           0       -6.311298   -9.290617  -14.122808
     25          6           0       -4.205793  -10.026794  -13.196560
     26          6           0       -5.918582   -9.688218  -15.382653
     27          1           0       -7.297610   -8.846234  -13.985776
     28          6           0       -3.795505  -10.430324  -14.445042
     29          1           0       -3.532176  -10.165254  -12.350682
     30          6           0       -4.645375  -10.286022  -15.578832
     31          1           0       -6.596418   -9.545124  -16.221282
     32          1           0       -2.807933  -10.871125  -14.557730
     33          7           0       -4.249517  -10.714700  -16.808941
     34          6           0       -5.101248  -10.488587  -17.965661
     35          6           0       -2.907331  -11.240027  -17.013020
     36          1           0       -5.269457   -9.411024  -18.131851
     37          1           0       -6.082683  -10.973972  -17.836293
     38          1           0       -4.624006  -10.903989  -18.859321
     39          1           0       -2.718991  -12.101348  -16.355502
     40          1           0       -2.804822  -11.564425  -18.053688
     41          1           0       -2.140762  -10.475113  -16.808062
 ---------------------------------------------------------------------

 SCF Done:  E(RwB97XD) =  -977.679018708     A.U. after   17 cycles

 Excitation energies and oscillator strengths:

 Excited state symmetry could not be determined.
 Excited State   1:      Singlet-?Sym    3.2118 eV  386.03 nm  f=0.8937  <S**2>=0.000
      78 -> 80         0.11634
      78 -> 82         0.16517
      79 -> 80         0.66118
 This state for optimization and/or second-order correction.
 Total Energy, E(TD-HF/TD-KS) =  -977.560986768
 Copying the excited state density for this state as the 1-particle RhoCI density.

 Excited state symmetry could not be determined.
 Excited State   2:      Singlet-?Sym    3.6737 eV  337.49 nm  f=0.3348  <S**2>=0.000
      78 -> 80         0.64460
      79 -> 80        -0.12455
      79 -> 82         0.17607

 Excited state symmetry could not be determined.
 Excited State   3:      Singlet-?Sym    3.7908 eV  327.07 nm  f=0.0059  <S**2>=0.000
      76 -> 80         0.66106
      76 -> 82         0.13656

 Excited state symmetry could not be determined.
 Excited State   4:      Singlet-?Sym    4.4905 eV  276.11 nm  f=0.0458  <S**2>=0.000
      74 -> 80         0.19127
      75 -> 80        -0.17285
      78 -> 82        -0.14364
      78 -> 84         0.11262
      78 -> 85        -0.32595
      79 -> 82         0.23139
      79 -> 84        -0.14517
      79 -> 85         0.41886

 Alpha  occ. eigenvalues --  -19.27785 -19.23798 -19.23181 -14.47900 -10.38106
 Alpha  occ. eigenvalues --  -10.35593 -10.35025 -10.34594 -10.34232 -10.33787
 Alpha  occ. eigenvalues --  -10.33718 -10.31536 -10.30992 -10.30804 -10.30124
 Alpha  occ. eigenvalues --  -10.30112 -10.29891 -10.29845 -10.29821 -10.29609
 Alpha  occ. eigenvalues --  -10.29010 -10.28535  -1.16515  -1.14613  -1.10690
 Alpha  occ. eigenvalues --   -1.08137  -0.97316  -0.95626  -0.91102  -0.87728
 Alpha  occ. eigenvalues --   -0.87291  -0.85121  -0.84531  -0.84245  -0.80035
 Alpha  occ. eigenvalues --   -0.78892  -0.74839  -0.72421  -0.71669  -0.68828
 Alpha  occ. eigenvalues --   -0.67556  -0.64811  -0.63417  -0.62439  -0.60467
 Alpha  occ. eigenvalues --   -0.59485  -0.58391  -0.58043  -0.57871  -0.55974
 Alpha  occ. eigenvalues --   -0.55708  -0.54783  -0.53682  -0.52923  -0.52238
 Alpha  occ. eigenvalues --   -0.51908  -0.51529  -0.51212  -0.51130  -0.50283
 Alpha  occ. eigenvalues --   -0.48791  -0.48660  -0.48384  -0.47391  -0.46472
 Alpha  occ. eigenvalues --   -0.46362  -0.45790  -0.44336  -0.43175  -0.42624
 Alpha  occ. eigenvalues --   -0.42301  -0.41378  -0.38066  -0.35167  -0.35122
 Alpha  occ. eigenvalues --   -0.34083  -0.33726  -0.28074  -0.26770
 Alpha virt. eigenvalues --   -0.02983   0.02484   0.03062   0.03421   0.04221
 Alpha virt. eigenvalues --    0.04313   0.04912   0.05683   0.06073   0.06264
 Alpha virt. eigenvalues --    0.06446   0.07339   0.07749   0.07931   0.08062

 Mulliken charges:
               1
     1  C   -1.125642
     2  C    0.540229
     3  C   -0.224749
     4  O   -0.149589
     5  C    1.257664
     6  H    0.029419
     7  C   -0.304306
     8  H    0.247668
     9  C   -0.405299
    10  C   -0.485175
    11  C   -0.252653
    12  H    0.243664
    13  H    0.169435
    14  H    0.211051
    15  H    0.173040
    16  O   -0.370337
    17  C    0.064064
    18  O   -0.354754
    19  H    0.425744
    20  C    0.216134
    21  H   -0.196640
    22  C    0.857751
    23  H    0.252160
    24  C   -0.225414
    25  C   -0.423249
    26  C   -0.319806
    27  H    0.214962
    28  C   -0.293674
    29  H    0.174760
    30  C   -0.673092
    31  H    0.192800
    32  H    0.228500
    33  N    0.069928
    34  C   -0.400363
    35  C   -0.387145
    36  H    0.182353
    37  H    0.172556
    38  H    0.160058
    39  H    0.164282
    40  H    0.157027
    41  H    0.186638
 Sum of Mulliken charges =   0.00000

 Dipole moment (field-independent basis, Debye):
    X=              5.1049    Y=             -3.2661    Z=             -8.5224  Tot=             10.4575
 Quadrupole moment (field-independent basis, Debye-Ang):
   XX=           -179.9045   YY=            -73.8908   ZZ=             87.5749
   XY=            -34.2641   XZ=             -7.4161   YZ=            119.5351

 Normal termination of Gaussian 09 at Sun Nov  5 12:36:07 2017.
