 Gaussian 09, Revision D.01,
 Gaussian 09:  ES64L-G09RevD.01 24-Apr-2013

 ------------------------------------------
 #p wb97xd 6-311++G** td=(nstates=4) nosymm
 ------------------------------------------

 -----
 Title
 -----
 Symbolic Z-matrix:
 Charge =  0 Multiplicity = 1

                          Input orientation:
 ---------------------------------------------------------------------
 Center     Atomic      Atomic             Coordinates (Angstroms)
 Number     Number       Type             X           Y           Z
 ---------------------------------------------------------------------
      1          6           0       -3.085431   -3.546101  -18.689950
      2          6           0       -3.803236   -3.178364  -17.539139
      3          1           0       -3.558414   -3.542171  -19.669863
      4          6           0       -1.756731   -3.933599  -18.587806
      5          6           0       -3.159572   -3.183886  -16.307265
      6          8           0       -5.132139   -2.821035  -17.538551
      7          6           0       -1.101463   -3.956620  -17.350372
      8          1           0       -1.211966   -4.249670  -19.477640
      9          1           0       -3.741779   -2.893099  -15.435471
     10          6           0       -1.810542   -3.563913  -16.175530
     11          6           0       -5.845340   -2.997131  -18.771402
     12          8           0        0.190242   -4.344893  -17.295538
     13          6           0       -1.116053   -3.601804  -14.877891
     14          1           0       -5.699885   -4.016350  -19.163720
     15          1           0       -6.903456   -2.852205  -18.528593
     16          1           0       -5.520759   -2.257664  -19.518946
     17          1           0        0.409302   -4.284539  -16.284674
     18          6           0       -1.801113   -3.228043  -13.663599
     19          8           0        0.109940   -3.972397  -14.855443
     20          1           0       -2.796781   -2.798314  -13.742041
     21          6           0       -1.223295   -3.374099  -12.437663
     22          6           0       -1.751526   -3.000815  -11.161204
     23          1           0       -0.222266   -3.815979  -12.424026
     24          6           0       -3.028120   -2.428791  -10.955517
     25          6           0       -0.946318   -3.189744  -10.017136
     26          6           0       -3.450669   -2.042579   -9.703733
     27          1           0       -3.700091   -2.287654  -11.803292
     28          6           0       -1.339780   -2.786392   -8.759626
     29          1           0        0.024222   -3.669107  -10.135581
     30          6           0       -2.603820   -2.174831   -8.567571
     31          1           0       -4.451614   -1.636857   -9.584384
     32          1           0       -0.674120   -2.954344   -7.916723
     33          7           0       -2.990406   -1.725978   -7.339064
     34          6           0       -4.287887   -1.097580   -7.152439
     35          6           0       -2.089753   -1.851358   -6.205278
     36          1           0       -5.112373   -1.820376   -7.270690
     37          1           0       -4.334769   -0.674045   -6.145539
     38          1           0       -4.430849   -0.273741   -7.868291
     39          1           0       -1.131914   -1.344777   -6.404447
     40          1           0       -2.546339   -1.387393   -5.327513
     41          1           0       -1.884530   -2.909439   -5.972648
 ---------------------------------------------------------------------

 SCF Done:  E(RwB97XD) =  -977.679203796     A.U. after   18 cycles

 Excitation energies and oscillator strengths:

 Excited state symmetry could not be determined.
 Excited State   1:      Singlet-?Sym    3.2415 eV  382.49 nm  f=0.8154  <S**2>=0.000
      78 -> 80         0.16087
      78 -> 82        -0.17746
      79 -> 80         0.64738
 This state for optimization and/or second-order correction.
 Total Energy, E(TD-HF/TD-KS) =  -977.560079821
 Copying the excited state density for this state as the 1-particle RhoCI density.

 Excited state symmetry could not be determined.
 Excited State   2:      Singlet-?Sym    3.6326 eV  341.31 nm  f=0.4086  <S**2>=0.000
      78 -> 80         0.63780
      79 -> 80        -0.17061
      79 -> 82        -0.17250

 Excited state symmetry could not be determined.
 Excited State   3:      Singlet-?Sym    3.7992 eV  326.34 nm  f=0.0060  <S**2>=0.000
      76 -> 80         0.66004
      76 -> 82        -0.12967

 Excited state symmetry could not be determined.
 Excited State   4:      Singlet-?Sym    4.5012 eV  275.45 nm  f=0.0457  <S**2>=0.000
      75 -> 80        -0.26250
      75 -> 82        -0.13345
      78 -> 82        -0.13570
      78 -> 85        -0.33168
      79 -> 82         0.21848
      79 -> 85         0.45078

 Alpha  occ. eigenvalues --  -19.27611 -19.24002 -19.23254 -14.47632 -10.38109
 Alpha  occ. eigenvalues --  -10.35290 -10.34855 -10.34492 -10.34036 -10.33534
 Alpha  occ. eigenvalues --  -10.33480 -10.31433 -10.30713 -10.30498 -10.29908
 Alpha  occ. eigenvalues --  -10.29877 -10.29872 -10.29828 -10.29533 -10.29503
 Alpha  occ. eigenvalues --  -10.28785 -10.28476  -1.16261  -1.14748  -1.11050
 Alpha  occ. eigenvalues --   -1.07852  -0.97112  -0.95566  -0.90958  -0.87452
 Alpha  occ. eigenvalues --   -0.86999  -0.85277  -0.84521  -0.84025  -0.79246
 Alpha  occ. eigenvalues --   -0.78852  -0.74834  -0.72285  -0.71488  -0.68931
 Alpha  occ. eigenvalues --   -0.67490  -0.64567  -0.63206  -0.62197  -0.60664
 Alpha  occ. eigenvalues --   -0.59168  -0.58450  -0.57777  -0.57687  -0.55767
 Alpha  occ. eigenvalues --   -0.55463  -0.54486  -0.53767  -0.52562  -0.52181
 Alpha  occ. eigenvalues --   -0.51430  -0.51409  -0.51231  -0.50870  -0.50046
 Alpha  occ. eigenvalues --   -0.49026  -0.48376  -0.48226  -0.47195  -0.46651
 Alpha  occ. eigenvalues --   -0.46332  -0.45631  -0.44457  -0.43531  -0.42535
 Alpha  occ. eigenvalues --   -0.41593  -0.41220  -0.38047  -0.35042  -0.34823
 Alpha  occ. eigenvalues --   -0.34129  -0.33719  -0.27735  -0.26719
 Alpha virt. eigenvalues --   -0.02788   0.02718   0.03213   0.04017   0.04261
 Alpha virt. eigenvalues --    0.04564   0.04710   0.05710   0.06189   0.06251
 Alpha virt. eigenvalues --    0.06629   0.07513   0.07727   0.07904   0.08015

 Mulliken charges:
               1
     1  C    0.211226
     2  C   -0.739994
     3  H    0.213122
     4  C   -0.323321
     5  C   -1.227796
     6  O   -0.139333
     7  C   -0.433737
     8  H    0.242703
     9  H    0.209290
    10  C    1.288732
    11  C   -0.374772
    12  O   -0.339937
    13  C    0.166477
    14  H    0.152450
    15  H    0.205425
    16  H    0.165551
    17  H    0.391843
    18  C    0.348633
    19  O   -0.349741
    20  H   -0.157537
    21  C    0.249336
    22  C    0.736776
    23  H    0.234327
    24  C   -0.460107
    25  C   -0.286957
    26  C   -0.385594
    27  H    0.151404
    28  C   -0.243050
    29  H    0.215677
    30  C   -0.430873
    31  H    0.222328
    32  H    0.186363
    33  N    0.061318
    34  C   -0.391577
    35  C   -0.386639
    36  H    0.190167
    37  H    0.152997
    38  H    0.163969
    39  H    0.175409
    40  H    0.157774
    41  H    0.177667
 Sum of Mulliken charges =   0.00000

 Dipole moment (field-independent basis, Debye):
    X=             -4.9660    Y=              2.3872    Z=              6.2781  Tot=              8.3531
 Quadrupole moment (field-independent basis, Debye-Ang):
   XX=           -107.3934   YY=           -148.7700   ZZ=           -245.0968
   XY=              8.8728   XZ=             67.2442   YZ=            -43.1542

 Normal termination of Gaussian 09 at Sat Nov  4 11:16:45 2017.
