 Gaussian 09, Revision D.01,
 Gaussian 09:  ES64L-G09RevD.01 24-Apr-2013

 ------------------------------------------
 #p wb97xd 6-311++G** td=(nstates=4) nosymm
 ------------------------------------------

 -----
 Title
 -----
 Symbolic Z-matrix:
 Charge =  0 Multiplicity = 1

                          Input orientation:
 ---------------------------------------------------------------------
 Center     Atomic      Atomic             Coordinates (Angstroms)
 Number     Number       Type             X           Y           Z
 ---------------------------------------------------------------------
      1          6           0       -3.085431   -3.546101  -18.689950
      2          6           0       -3.803236   -3.178364  -17.539139
      3          1           0       -3.558414   -3.542171  -19.669863
      4          6           0       -1.756731   -3.933599  -18.587806
      5          6           0       -3.159572   -3.183886  -16.307265
      6          8           0       -5.132139   -2.821035  -17.538551
      7          6           0       -1.101463   -3.956620  -17.350372
      8          1           0       -1.211966   -4.249670  -19.477640
      9          1           0       -3.741779   -2.893099  -15.435471
     10          6           0       -1.810542   -3.563913  -16.175530
     11          6           0       -5.845340   -2.997131  -18.771402
     12          8           0        0.190242   -4.344893  -17.295538
     13          6           0       -1.116053   -3.601804  -14.877891
     14          1           0       -5.699885   -4.016350  -19.163720
     15          1           0       -6.903456   -2.852205  -18.528593
     16          1           0       -5.520759   -2.257664  -19.518946
     17          1           0        0.409302   -4.284539  -16.284674
     18          6           0       -1.801113   -3.228043  -13.663599
     19          8           0        0.109940   -3.972397  -14.855443
     20          1           0       -2.796781   -2.798314  -13.742041
     21          6           0       -1.223295   -3.374099  -12.437663
     22          6           0       -1.751526   -3.000815  -11.161204
     23          1           0       -0.222266   -3.815979  -12.424026
     24          6           0       -3.028120   -2.428791  -10.955517
     25          6           0       -0.946318   -3.189744  -10.017136
     26          6           0       -3.450669   -2.042579   -9.703733
     27          1           0       -3.700091   -2.287654  -11.803292
     28          6           0       -1.339780   -2.786392   -8.759626
     29          1           0        0.024222   -3.669107  -10.135581
     30          6           0       -2.603820   -2.174831   -8.567571
     31          1           0       -4.451614   -1.636857   -9.584384
     32          1           0       -0.674120   -2.954344   -7.916723
     33          7           0       -2.990406   -1.725978   -7.339064
     34          6           0       -4.287887   -1.097580   -7.152439
     35          6           0       -2.089753   -1.851358   -6.205278
     36          1           0       -5.112373   -1.820376   -7.270690
     37          1           0       -4.334769   -0.674045   -6.145539
     38          1           0       -4.430849   -0.273741   -7.868291
     39          1           0       -1.131914   -1.344777   -6.404447
     40          1           0       -2.546339   -1.387393   -5.327513
     41          1           0       -1.884530   -2.909439   -5.972648
     42          6           0       -1.437250    1.737391   -5.090015
     43          6           0       -2.092518    1.760412   -6.327449
     44          1           0       -1.982015    2.053463   -4.200181
     45          6           0       -0.108550    1.349894   -4.987871
     46          6           0       -1.383439    1.367706   -7.502291
     47          8           0       -3.384223    2.148685   -6.382283
     48          6           0        0.609255    0.982157   -6.138682
     49          1           0        0.364433    1.345964   -4.007958
     50          6           0       -2.077928    1.405596   -8.799930
     51          6           0       -0.034409    0.987679   -7.370556
     52          1           0       -3.603283    2.088332   -7.393147
     53          8           0        1.938158    0.624828   -6.139270
     54          6           0       -1.392868    1.031835  -10.014222
     55          8           0       -3.303921    1.776190   -8.822378
     56          1           0        0.547798    0.696891   -8.242350
     57          6           0        2.651358    0.800924   -4.906419
     58          6           0       -1.970686    1.177892  -11.240158
     59          1           0       -0.397200    0.602107   -9.935780
     60          1           0        2.505904    1.820143   -4.514101
     61          1           0        3.709475    0.655998   -5.149228
     62          1           0        2.326778    0.061456   -4.158875
     63          6           0       -1.442455    0.804607  -12.516617
     64          1           0       -2.971715    1.619772  -11.253795
     65          6           0       -2.247663    0.993537  -13.660685
     66          6           0       -0.165861    0.232584  -12.722303
     67          6           0       -1.854201    0.590184  -14.918195
     68          1           0       -3.218203    1.472900  -13.542240
     69          6           0        0.256689   -0.153628  -13.974088
     70          1           0        0.506110    0.091446  -11.874529
     71          1           0       -2.519861    0.758137  -15.761098
     72          6           0       -0.590160   -0.021376  -15.110249
     73          1           0        1.257633   -0.559351  -14.093437
     74          7           0       -0.203575   -0.470229  -16.338756
     75          6           0        1.093907   -1.098627  -16.525381
     76          6           0       -1.104228   -0.344850  -17.472543
     77          1           0        1.236868   -1.922466  -15.809531
     78          1           0        1.918393   -0.375831  -16.407131
     79          1           0        1.140789   -1.522162  -17.532281
     80          1           0       -2.062067   -0.851431  -17.273374
     81          1           0       -0.647642   -0.808814  -18.350308
     82          1           0       -1.309451    0.713232  -17.705173
 ---------------------------------------------------------------------

 SCF Done:  E(RwB97XD) =  -1955.40074326     A.U. after   28 cycles

 Excitation energies and oscillator strengths:

 Excited state symmetry could not be determined.
 Excited State   1:      Singlet-?Sym    2.9327 eV  422.76 nm  f=0.0000  <S**2>=0.000
     156 -> 160        0.15096
     157 -> 160        0.23984
     158 -> 159        0.61123
 This state for optimization and/or second-order correction.
 Total Energy, E(TD-HF/TD-KS) =  -1955.29296789
 Copying the excited state density for this state as the 1-particle RhoCI density.

 Excited state symmetry could not be determined.
 Excited State   2:      Singlet-?Sym    3.2280 eV  384.09 nm  f=1.1520  <S**2>=0.000
     155 -> 160       -0.12951
     156 -> 159        0.27974
     156 -> 161        0.11754
     158 -> 160        0.60231

 Excited state symmetry could not be determined.
 Excited State   3:      Singlet-?Sym    3.4344 eV  361.01 nm  f=0.0000  <S**2>=0.000
     156 -> 160       -0.11618
     157 -> 160        0.62630
     158 -> 159       -0.24844

 Excited state symmetry could not be determined.
 Excited State   4:      Singlet-?Sym    3.4501 eV  359.36 nm  f=0.7709  <S**2>=0.000
     155 -> 160       -0.10474
     157 -> 159        0.66730
     158 -> 160       -0.10956

 Alpha  occ. eigenvalues --  -19.28355 -19.28355 -19.24937 -19.24937 -19.23731
 Alpha  occ. eigenvalues --  -19.23731 -14.46480 -14.46480 -10.38492 -10.38491
 Alpha  occ. eigenvalues --  -10.35695 -10.35694 -10.35347 -10.35347 -10.34660
 Alpha  occ. eigenvalues --  -10.34660 -10.34389 -10.34389 -10.31746 -10.31746
 Alpha  occ. eigenvalues --  -10.31349 -10.31349 -10.31338 -10.31338 -10.30698
 Alpha  occ. eigenvalues --  -10.30698 -10.30675 -10.30675 -10.30265 -10.30265
 Alpha  occ. eigenvalues --  -10.29984 -10.29984 -10.29952 -10.29952 -10.29424
 Alpha  occ. eigenvalues --  -10.29423 -10.29266 -10.29266 -10.28864 -10.28864
 Alpha  occ. eigenvalues --  -10.28729 -10.28728 -10.28474 -10.28474  -1.16999
 Alpha  occ. eigenvalues --   -1.16999  -1.15558  -1.15558  -1.11749  -1.11748
 Alpha  occ. eigenvalues --   -1.06526  -1.06525  -0.96510  -0.96485  -0.96351
 Alpha  occ. eigenvalues --   -0.96230  -0.90646  -0.90499  -0.87838  -0.87822
 Alpha  occ. eigenvalues --   -0.86052  -0.86048  -0.85836  -0.85834  -0.84308
 Alpha  occ. eigenvalues --   -0.84184  -0.82477  -0.82469  -0.79634  -0.79633
 Alpha  occ. eigenvalues --   -0.78547  -0.78407  -0.75014  -0.74927  -0.72124
 Alpha  occ. eigenvalues --   -0.72099  -0.70892  -0.70883  -0.69264  -0.69177
 Alpha  occ. eigenvalues --   -0.67266  -0.67179  -0.64469  -0.64435  -0.62633
 Alpha  occ. eigenvalues --   -0.62615  -0.62199  -0.62175  -0.61294  -0.61294
 Alpha  occ. eigenvalues --   -0.59029  -0.58932  -0.58504  -0.58407  -0.57620
 Alpha  occ. eigenvalues --   -0.57573  -0.56828  -0.56796  -0.56216  -0.56216
 Alpha  occ. eigenvalues --   -0.54784  -0.54771  -0.54224  -0.54193  -0.53634
 Alpha  occ. eigenvalues --   -0.53583  -0.52817  -0.52811  -0.51875  -0.51838
 Alpha  occ. eigenvalues --   -0.51634  -0.51625  -0.51388  -0.51334  -0.50685
 Alpha  occ. eigenvalues --   -0.50582  -0.49912  -0.49903  -0.49873  -0.49856
 Alpha  occ. eigenvalues --   -0.49007  -0.48804  -0.48214  -0.47615  -0.47610
 Alpha  occ. eigenvalues --   -0.47351  -0.46979  -0.46760  -0.46447  -0.46368
 Alpha  occ. eigenvalues --   -0.46298  -0.45966  -0.45335  -0.45305  -0.45162
 Alpha  occ. eigenvalues --   -0.45129  -0.44211  -0.44204  -0.42377  -0.42366
 Alpha  occ. eigenvalues --   -0.41745  -0.41710  -0.40498  -0.40438  -0.38808
 Alpha  occ. eigenvalues --   -0.38797  -0.35048  -0.34771  -0.34743  -0.34738
 Alpha  occ. eigenvalues --   -0.34541  -0.34224  -0.33891  -0.33399  -0.28607
 Alpha  occ. eigenvalues --   -0.28202  -0.26555  -0.25601
 Alpha virt. eigenvalues --   -0.03206  -0.02767   0.02665   0.03250   0.03343
 Alpha virt. eigenvalues --    0.03397   0.04283   0.04447   0.04733   0.04896
 Alpha virt. eigenvalues --    0.05090   0.05268   0.05518   0.05519   0.05996

 Mulliken charges:
               1
     1  C    0.237520
     2  C   -0.407216
     3  H    0.227816
     4  C   -0.435897
     5  C   -0.413398
     6  O   -0.079280
     7  C   -0.429983
     8  H    0.250306
     9  H    0.322700
    10  C    0.432155
    11  C   -0.368166
    12  O   -0.229964
    13  C   -0.081523
    14  H    0.160054
    15  H    0.203040
    16  H    0.161825
    17  H    0.350263
    18  C    0.050441
    19  O   -0.278551
    20  H   -0.114283
    21  C   -0.139908
    22  C    0.241577
    23  H    0.287151
    24  C   -0.385766
    25  C   -0.320820
    26  C   -0.310693
    27  H    0.206618
    28  C   -0.319741
    29  H    0.200487
    30  C    0.174301
    31  H    0.217710
    32  H    0.181544
    33  N    0.104531
    34  C   -0.432712
    35  C   -0.326406
    36  H    0.194764
    37  H    0.171276
    38  H    0.180545
    39  H    0.177354
    40  H    0.138649
    41  H    0.201678
    42  C   -0.435897
    43  C   -0.429982
    44  H    0.250306
    45  C    0.237521
    46  C    0.432156
    47  O   -0.229964
    48  C   -0.407214
    49  H    0.227817
    50  C   -0.081530
    51  C   -0.413389
    52  H    0.350263
    53  O   -0.079279
    54  C    0.050437
    55  O   -0.278551
    56  H    0.322700
    57  C   -0.368166
    58  C   -0.139906
    59  H   -0.114283
    60  H    0.160054
    61  H    0.203040
    62  H    0.161825
    63  C    0.241565
    64  H    0.287151
    65  C   -0.320826
    66  C   -0.385771
    67  C   -0.319735
    68  H    0.200486
    69  C   -0.310693
    70  H    0.206620
    71  H    0.181544
    72  C    0.174315
    73  H    0.217708
    74  N    0.104528
    75  C   -0.432712
    76  C   -0.326403
    77  H    0.180545
    78  H    0.194764
    79  H    0.171276
    80  H    0.177354
    81  H    0.138650
    82  H    0.201678
 Sum of Mulliken charges =   0.00000

 Dipole moment (field-independent basis, Debye):
    X=              0.0000    Y=              0.0000    Z=              0.0000  Tot=              0.0000
 Quadrupole moment (field-independent basis, Debye-Ang):
   XX=           -245.4380   YY=           -288.2765   ZZ=           -197.4608
   XY=             15.9730   XZ=             37.6143   YZ=            -16.0578

 Normal termination of Gaussian 09 at Sat Nov  4 09:45:56 2017.
