 Gaussian 09, Revision D.01,
 Gaussian 09:  ES64L-G09RevD.01 24-Apr-2013

 ------------------------------------------
 #p wb97xd 6-311++G** td=(nstates=4) nosymm
 ------------------------------------------

 -----
 Title
 -----
 Symbolic Z-matrix:
 Charge =  0 Multiplicity = 1

                          Input orientation:
 ---------------------------------------------------------------------
 Center     Atomic      Atomic             Coordinates (Angstroms)
 Number     Number       Type             X           Y           Z
 ---------------------------------------------------------------------
      1          6           0       -5.706418   -6.012055  -16.455422
      2          1           0       -5.870111   -6.818024  -15.721653
      3          1           0       -6.661943   -5.719940  -16.907289
      4          1           0       -5.247600   -5.139557  -15.960401
      5          8           0       -4.879954   -6.464712  -17.530061
      6          6           0       -3.619904   -6.915799  -17.210325
      7          6           0       -3.090146   -6.965685  -15.929966
      8          6           0       -2.847094   -7.351359  -18.301788
      9          1           0       -3.687335   -6.632421  -15.087013
     10          6           0       -1.774234   -7.439275  -15.705824
     11          6           0       -1.567932   -7.833938  -18.109629
     12          1           0       -3.271652   -7.294310  -19.302973
     13          6           0       -1.007261   -7.877037  -16.824975
     14          6           0       -1.151752   -7.476864  -14.375708
     15          1           0       -0.971334   -8.169870  -18.957781
     16          8           0        0.255306   -8.340820  -16.673941
     17          6           0       -1.865848   -7.087653  -13.186955
     18          8           0        0.071433   -7.865727  -14.285922
     19          1           0        0.426305   -8.201161  -15.647053
     20          6           0       -1.263696   -7.140447  -11.962534
     21          1           0       -2.889634   -6.734134  -13.279178
     22          6           0       -1.771238   -6.743836  -10.688372
     23          1           0       -0.238584   -7.525420  -11.951774
     24          6           0       -3.046875   -6.166860  -10.481261
     25          6           0       -0.941370   -6.903038   -9.555013
     26          6           0       -3.457163   -5.763330   -9.232779
     27          1           0       -3.720492   -6.028400  -11.327139
     28          6           0       -1.334086   -6.505437   -8.295168
     29          1           0        0.044942   -7.347420   -9.692045
     30          1           0       -4.444735   -5.322529   -9.120091
     31          6           0       -2.607293   -5.907632   -8.098989
     32          1           0       -0.656250   -6.648531   -7.456539
     33          7           0       -3.003151   -5.478954   -6.868880
     34          6           0       -4.345337   -4.953627   -6.664801
     35          6           0       -2.151420   -5.705067   -5.712160
     36          1           0       -4.533677   -4.092307   -7.322319
     37          1           0       -4.447846   -4.629229   -5.624133
     38          1           0       -5.111906   -5.718541   -6.869759
     39          1           0       -2.628662   -5.289666   -4.818500
     40          1           0       -1.983211   -6.782630   -5.545970
     41          1           0       -1.169985   -5.219682   -5.841528
     42          6           0       -3.632763   -9.277855   -6.467496
     43          6           0       -4.162522   -9.227970   -7.747855
     44          6           0       -4.405573   -8.842295   -5.376032
     45          8           0       -2.372714   -9.728943   -6.147760
     46          6           0       -5.478434   -8.754379   -7.971997
     47          1           0       -3.565333   -9.561233   -8.590808
     48          6           0       -5.684736   -8.359716   -5.568192
     49          1           0       -3.981016   -8.899345   -4.374849
     50          6           0       -1.546250  -10.181599   -7.222399
     51          6           0       -6.245408   -8.316618   -6.852846
     52          6           0       -6.100916   -8.716791   -9.302113
     53          1           0       -6.281334   -8.023784   -4.720041
     54          1           0       -1.382557   -9.375631   -7.956169
     55          1           0       -0.590725  -10.473715   -6.770532
     56          1           0       -2.005068  -11.054098   -7.717419
     57          8           0       -7.507973   -7.852834   -7.003880
     58          6           0       -5.386820   -9.106002  -10.490867
     59          8           0       -7.324100   -8.327927   -9.391898
     60          1           0       -7.678973   -7.992494   -8.030767
     61          6           0       -5.988972   -9.053207  -11.715286
     62          1           0       -4.363033   -9.459520  -10.398643
     63          6           0       -5.481430   -9.449819  -12.989449
     64          1           0       -7.014084   -8.668235  -11.726047
     65          6           0       -6.311298   -9.290617  -14.122808
     66          6           0       -4.205793  -10.026794  -13.196560
     67          6           0       -5.918582   -9.688218  -15.382653
     68          1           0       -7.297610   -8.846234  -13.985776
     69          6           0       -3.795505  -10.430324  -14.445042
     70          1           0       -3.532176  -10.165254  -12.350682
     71          6           0       -4.645375  -10.286022  -15.578832
     72          1           0       -6.596418   -9.545124  -16.221282
     73          1           0       -2.807933  -10.871125  -14.557730
     74          7           0       -4.249517  -10.714700  -16.808941
     75          6           0       -5.101248  -10.488587  -17.965661
     76          6           0       -2.907331  -11.240027  -17.013020
     77          1           0       -5.269457   -9.411024  -18.131851
     78          1           0       -6.082683  -10.973972  -17.836293
     79          1           0       -4.624006  -10.903989  -18.859321
     80          1           0       -2.718991  -12.101348  -16.355502
     81          1           0       -2.804822  -11.564425  -18.053688
     82          1           0       -2.140762  -10.475113  -16.808062
 ---------------------------------------------------------------------

 SCF Done:  E(RwB97XD) =  -1955.39761207     A.U. after   28 cycles

 Excitation energies and oscillator strengths:

 Excited state symmetry could not be determined.
 Excited State   1:      Singlet-?Sym    3.0001 eV  413.26 nm  f=0.0000  <S**2>=0.000
     156 -> 160        0.10395
     157 -> 160       -0.37548
     158 -> 159        0.54290
 This state for optimization and/or second-order correction.
 Total Energy, E(TD-HF/TD-KS) =  -1955.28735897
 Copying the excited state density for this state as the 1-particle RhoCI density.

 Excited state symmetry could not be determined.
 Excited State   2:      Singlet-?Sym    3.2850 eV  377.42 nm  f=1.5818  <S**2>=0.000
     155 -> 160        0.21413
     155 -> 162        0.12248
     156 -> 159        0.25092
     156 -> 161        0.12402
     157 -> 159       -0.40640
     158 -> 160        0.41896

 Excited state symmetry could not be determined.
 Excited State   3:      Singlet-?Sym    3.5946 eV  344.91 nm  f=0.0000  <S**2>=0.000
     155 -> 159        0.48604
     155 -> 161        0.10221
     156 -> 160        0.41834
     156 -> 162        0.10636
     158 -> 159       -0.12867
     158 -> 161        0.11015

 Excited state symmetry could not be determined.
 Excited State   4:      Singlet-?Sym    3.6456 eV  340.10 nm  f=0.5948  <S**2>=0.000
     155 -> 160        0.34545
     156 -> 159        0.42953
     157 -> 159        0.34990
     157 -> 161       -0.10315
     158 -> 160       -0.11485
     158 -> 162        0.12195

 Alpha  occ. eigenvalues --  -19.28417 -19.28417 -19.24589 -19.24589 -19.23692
 Alpha  occ. eigenvalues --  -19.23692 -14.47282 -14.47282 -10.38565 -10.38565
 Alpha  occ. eigenvalues --  -10.35756 -10.35756 -10.35288 -10.35288 -10.35244
 Alpha  occ. eigenvalues --  -10.35244 -10.34389 -10.34389 -10.32795 -10.32795
 Alpha  occ. eigenvalues --  -10.32442 -10.32442 -10.31771 -10.31770 -10.30821
 Alpha  occ. eigenvalues --  -10.30821 -10.30730 -10.30729 -10.30596 -10.30596
 Alpha  occ. eigenvalues --  -10.30447 -10.30447 -10.30443 -10.30443 -10.30018
 Alpha  occ. eigenvalues --  -10.30018 -10.29662 -10.29662 -10.29619 -10.29619
 Alpha  occ. eigenvalues --  -10.29398 -10.29398 -10.29083 -10.29083  -1.17109
 Alpha  occ. eigenvalues --   -1.17109  -1.15293  -1.15293  -1.11343  -1.11343
 Alpha  occ. eigenvalues --   -1.07393  -1.07392  -0.97166  -0.97123  -0.96345
 Alpha  occ. eigenvalues --   -0.96338  -0.91134  -0.91091  -0.88218  -0.88118
 Alpha  occ. eigenvalues --   -0.86925  -0.86921  -0.85257  -0.85201  -0.85037
 Alpha  occ. eigenvalues --   -0.84986  -0.83379  -0.83378  -0.80199  -0.80171
 Alpha  occ. eigenvalues --   -0.78913  -0.78826  -0.75203  -0.75174  -0.72445
 Alpha  occ. eigenvalues --   -0.72401  -0.71580  -0.71579  -0.69111  -0.69045
 Alpha  occ. eigenvalues --   -0.67770  -0.67665  -0.64907  -0.64870  -0.63153
 Alpha  occ. eigenvalues --   -0.63086  -0.62658  -0.62625  -0.61101  -0.61095
 Alpha  occ. eigenvalues --   -0.59439  -0.59421  -0.58644  -0.58625  -0.58123
 Alpha  occ. eigenvalues --   -0.58120  -0.57331  -0.57320  -0.56118  -0.56116
 Alpha  occ. eigenvalues --   -0.55384  -0.55365  -0.54921  -0.54912  -0.53721
 Alpha  occ. eigenvalues --   -0.53712  -0.52732  -0.52713  -0.52598  -0.52592
 Alpha  occ. eigenvalues --   -0.52333  -0.52333  -0.51866  -0.51844  -0.51200
 Alpha  occ. eigenvalues --   -0.51157  -0.50257  -0.50256  -0.49706  -0.49699
 Alpha  occ. eigenvalues --   -0.49532  -0.49526  -0.48692  -0.48086  -0.47789
 Alpha  occ. eigenvalues --   -0.47752  -0.47468  -0.47459  -0.47170  -0.46824
 Alpha  occ. eigenvalues --   -0.46744  -0.46561  -0.45874  -0.45857  -0.44969
 Alpha  occ. eigenvalues --   -0.44907  -0.43641  -0.43625  -0.42976  -0.42964
 Alpha  occ. eigenvalues --   -0.42460  -0.42458  -0.41356  -0.40977  -0.38700
 Alpha  occ. eigenvalues --   -0.38694  -0.35468  -0.35413  -0.34756  -0.34666
 Alpha  occ. eigenvalues --   -0.34646  -0.34443  -0.34358  -0.34322  -0.28530
 Alpha  occ. eigenvalues --   -0.28412  -0.26873  -0.26565
 Alpha virt. eigenvalues --   -0.03605  -0.03082   0.02414   0.02758   0.03166
 Alpha virt. eigenvalues --    0.03356   0.03825   0.04094   0.04451   0.04525
 Alpha virt. eigenvalues --    0.04772   0.04898   0.05248   0.05662   0.05871

 Mulliken charges:
               1
     1  C   -0.417308
     2  H    0.191766
     3  H    0.199186
     4  H    0.178825
     5  O   -0.059524
     6  C   -0.715347
     7  C    0.246397
     8  C   -0.096355
     9  H    0.225727
    10  C    0.589598
    11  C   -0.109617
    12  H    0.241209
    13  C   -0.649565
    14  C   -0.292490
    15  H    0.253740
    16  O   -0.273739
    17  C    0.058690
    18  O   -0.309641
    19  H    0.370907
    20  C   -0.233899
    21  H   -0.245853
    22  C    0.111195
    23  H    0.283309
    24  C   -0.175038
    25  C   -0.333233
    26  C   -0.155947
    27  H    0.233111
    28  C   -0.241712
    29  H    0.216813
    30  H    0.209329
    31  C    0.111851
    32  H    0.199473
    33  N    0.038461
    34  C   -0.422379
    35  C   -0.363484
    36  H    0.176361
    37  H    0.158478
    38  H    0.262647
    39  H    0.152747
    40  H    0.204302
    41  H    0.181008
    42  C   -0.715355
    43  C    0.246394
    44  C   -0.096350
    45  O   -0.059522
    46  C    0.589603
    47  H    0.225728
    48  C   -0.109618
    49  H    0.241209
    50  C   -0.417309
    51  C   -0.649562
    52  C   -0.292493
    53  H    0.253739
    54  H    0.191767
    55  H    0.199186
    56  H    0.178825
    57  O   -0.273739
    58  C    0.058688
    59  O   -0.309640
    60  H    0.370907
    61  C   -0.233893
    62  H   -0.245852
    63  C    0.111198
    64  H    0.283309
    65  C   -0.333238
    66  C   -0.175037
    67  C   -0.241706
    68  H    0.216813
    69  C   -0.155952
    70  H    0.233110
    71  C    0.111847
    72  H    0.199474
    73  H    0.209329
    74  N    0.038462
    75  C   -0.363482
    76  C   -0.422380
    77  H    0.204302
    78  H    0.181008
    79  H    0.152746
    80  H    0.176361
    81  H    0.158478
    82  H    0.262646
 Sum of Mulliken charges =   0.00000

 Dipole moment (field-independent basis, Debye):
    X=              0.0000    Y=              0.0000    Z=              0.0000  Tot=              0.0000
 Quadrupole moment (field-independent basis, Debye-Ang):
   XX=           -289.3061   YY=           -251.6407   ZZ=           -231.9901
   XY=             -9.5864   XZ=             44.5337   YZ=             24.2436

 Normal termination of Gaussian 09 at Sun Nov  5 09:26:07 2017.
