 Gaussian 09, Revision D.01,
 Gaussian 09:  ES64L-G09RevD.01 24-Apr-2013

 ----------------------------------------------------------------------
 #p wb97xd 6-31G* td=(nstates=1) nosymm density=(transition=1) pop=Save
 NTO
 ----------------------------------------------------------------------

 -----
 title
 -----
 Symbolic Z-matrix:
 Charge =  0 Multiplicity = 1

                          Input orientation:
 ---------------------------------------------------------------------
 Center     Atomic      Atomic             Coordinates (Angstroms)
 Number     Number       Type             X           Y           Z
 ---------------------------------------------------------------------
      1          6           0        0.172341   -0.187617   -2.513281
      2          6           0       -1.159280   -0.530958   -1.948253
      3          6           0        0.999324    0.726072   -1.820478
      4          6           0        0.658540   -0.735505   -3.710156
      5          6           0       -2.064376   -1.389635   -2.681212
      6          8           0       -1.484290   -0.059676   -0.839821
      7          6           0        2.258423    1.060020   -2.329142
      8          8           0        0.621977    1.299573   -0.671555
      9          1           0       -0.251704    0.892357   -0.441721
     10          6           0        1.901769   -0.403627   -4.211587
     11          1           0        0.053759   -1.445943   -4.259628
     12          6           0       -3.253773   -1.710577   -2.098465
     13          1           0       -1.804856   -1.753759   -3.663895
     14          6           0        2.702534    0.499963   -3.510111
     15          1           0        2.867752    1.758760   -1.767654
     16          1           0        2.253370   -0.846389   -5.135799
     17          1           0       -3.441076   -1.319371   -1.102273
     18          7           0       -4.234034   -2.457669   -2.623664
     19          1           0        3.683379    0.761646   -3.891993
     20          6           0       -4.096938   -3.015073   -3.954991
     21          6           0       -5.442712   -2.754541   -1.878978
     22          1           0       -3.912790   -2.222641   -4.688619
     23          1           0       -5.018438   -3.528928   -4.225763
     24          1           0       -3.268862   -3.731619   -3.998260
     25          1           0       -5.393468   -2.277174   -0.900074
     26          1           0       -5.556990   -3.833238   -1.732732
     27          1           0       -6.325552   -2.375343   -2.404822
 ---------------------------------------------------------------------

 SCF Done:  E(RwB97XD) =  -631.984050246     A.U. after   17 cycles

 Excitation energies and oscillator strengths:

 Excited state symmetry could not be determined.
 Excited State   1:      Singlet-?Sym    4.2374 eV  292.60 nm  f=0.4281  <S**2>=0.000
      48 -> 52         0.19473
      51 -> 52         0.64569
 This state for optimization and/or second-order correction.
 Total Energy, E(TD-HF/TD-KS) =  -631.828330016
 Copying the excited state density for this state as the 1-particle RhoCI density.

 Alpha  occ. eigenvalues --    0.00000   0.00000   0.00000   0.00000   0.00000
 Alpha  occ. eigenvalues --    0.00000   0.00000   0.00000   0.00000   0.00000
 Alpha  occ. eigenvalues --    0.00000   0.00000   0.00000   0.00000   0.00000
 Alpha  occ. eigenvalues --    0.00000   0.00000   0.00001   0.00001   0.00001
 Alpha  occ. eigenvalues --    0.00001   0.00001   0.00001   0.00001   0.00002
 Alpha  occ. eigenvalues --    0.00002   0.00002   0.00003   0.00004   0.00006
 Alpha  occ. eigenvalues --    0.00009   0.00010   0.00011   0.00013   0.00013
 Alpha  occ. eigenvalues --    0.00017   0.00019   0.00020   0.00024   0.00027
 Alpha  occ. eigenvalues --    0.00029   0.00034   0.00037   0.00044   0.00051
 Alpha  occ. eigenvalues --    0.00059   0.00123   0.00305   0.02104   0.02571
 Alpha  occ. eigenvalues --    0.95195
 Alpha virt. eigenvalues --    0.95195   0.02571   0.02104   0.00305   0.00123
 Alpha virt. eigenvalues --    0.00059   0.00051   0.00044   0.00037   0.00034
 Alpha virt. eigenvalues --    0.00029   0.00027   0.00024   0.00020   0.00019

 Mulliken charges:
               1
     1  C    5.935120
     2  C    6.008511
     3  C    6.046228
     4  C    6.004814
     5  C    6.027542
     6  O    8.000429
     7  C    6.030058
     8  O    8.057885
     9  H    1.013826
    10  C    5.989027
    11  H    1.014909
    12  C    5.948110
    13  H    0.995083
    14  C    6.022501
    15  H    1.032256
    16  H    1.015545
    17  H    0.970074
    18  N    6.968351
    19  H    1.030410
    20  C    6.024151
    21  C    6.020469
    22  H    0.967391
    23  H    0.982369
    24  H    0.966833
    25  H    0.979154
    26  H    0.974584
    27  H    0.974370
 Sum of Mulliken charges = 102.00000

 Dipole moment (field-independent basis, Debye):
    X=              6.2740    Y=              3.6683    Z=              0.6762  Tot=              7.2991
 Quadrupole moment (field-independent basis, Debye-Ang):
   XX=            -13.7066   YY=             -5.4082   ZZ=             -2.4237
   XY=             -8.8778   XZ=            -16.4972   YZ=             -8.6947

 Normal termination of Gaussian 09 at Wed Sep 27 14:40:56 2017.
