 Gaussian 09, Revision D.01,
 Gaussian 09:  ES64L-G09RevD.01 24-Apr-2013

 ----------------------------------------------------------------------
 #p wb97xd 6-31G* td=(nstates=1) nosymm density=(transition=1) pop=Save
 NTO
 ----------------------------------------------------------------------

 -----
 title
 -----
 Symbolic Z-matrix:
 Charge =  0 Multiplicity = 1

                          Input orientation:
 ---------------------------------------------------------------------
 Center     Atomic      Atomic             Coordinates (Angstroms)
 Number     Number       Type             X           Y           Z
 ---------------------------------------------------------------------
      1          6           0        2.845109    0.146510    2.769383
      2          6           0        1.556037    0.458959    3.442038
      3          6           0        3.890255   -0.444474    3.516121
      4          6           0        3.071142    0.419696    1.412774
      5          6           0        0.581420    1.293560    2.767584
      6          8           0        1.348961    0.019626    4.588492
      7          6           0        5.126913   -0.690212    2.908777
      8          8           0        3.754973   -0.779870    4.802038
      9          1           0        2.816130   -0.589386    5.038175
     10          6           0        4.285648    0.148700    0.811836
     11          1           0        2.271593    0.831557    0.811104
     12          6           0       -0.601627    1.545703    3.389144
     13          1           0        0.808278    1.713509    1.799433
     14          6           0        5.319830   -0.396616    1.574026
     15          1           0        5.912601   -1.124016    3.514929
     16          1           0        4.426974    0.351858   -0.242450
     17          1           0       -0.779696    1.063129    4.346396
     18          7           0       -1.587574    2.356426    2.962433
     19          1           0        6.281884   -0.601060    1.116508
     20          6           0       -1.484488    3.046062    1.692542
     21          6           0       -2.886045    2.353027    3.605579
     22          1           0       -0.493171    3.489494    1.582694
     23          1           0       -2.224397    3.847997    1.661639
     24          1           0       -1.662197    2.369891    0.847920
     25          1           0       -2.818827    1.853707    4.572311
     26          1           0       -3.632013    1.829713    2.993364
     27          1           0       -3.231297    3.379298    3.768317
 ---------------------------------------------------------------------

 SCF Done:  E(RwB97XD) =  -631.983999775     A.U. after   17 cycles

 Excitation energies and oscillator strengths:

 Excited state symmetry could not be determined.
 Excited State   1:      Singlet-?Sym    4.2321 eV  292.96 nm  f=0.1841  <S**2>=0.000
      48 -> 52         0.43216
      49 -> 52        -0.31731
      51 -> 52         0.42550
 This state for optimization and/or second-order correction.
 Total Energy, E(TD-HF/TD-KS) =  -631.828471168
 Copying the excited state density for this state as the 1-particle RhoCI density.

 Alpha  occ. eigenvalues --    0.00000   0.00000   0.00000   0.00000   0.00000
 Alpha  occ. eigenvalues --    0.00000   0.00000   0.00000   0.00000   0.00000
 Alpha  occ. eigenvalues --    0.00000   0.00000   0.00000   0.00000   0.00000
 Alpha  occ. eigenvalues --    0.00000   0.00000   0.00000   0.00000   0.00001
 Alpha  occ. eigenvalues --    0.00001   0.00001   0.00001   0.00001   0.00001
 Alpha  occ. eigenvalues --    0.00001   0.00001   0.00002   0.00002   0.00003
 Alpha  occ. eigenvalues --    0.00004   0.00004   0.00005   0.00007   0.00007
 Alpha  occ. eigenvalues --    0.00007   0.00009   0.00010   0.00011   0.00012
 Alpha  occ. eigenvalues --    0.00014   0.00015   0.00018   0.00018   0.00023
 Alpha  occ. eigenvalues --    0.00025   0.00048   0.00311   0.00833   0.02568
 Alpha  occ. eigenvalues --    0.96402
 Alpha virt. eigenvalues --    0.96402   0.02568   0.00833   0.00311   0.00048
 Alpha virt. eigenvalues --    0.00025   0.00023   0.00018   0.00018   0.00015
 Alpha virt. eigenvalues --    0.00014   0.00012   0.00011   0.00010   0.00009

 Mulliken charges:
               1
     1  C    6.043151
     2  C    5.991323
     3  C    5.969444
     4  C    5.998604
     5  C    5.978655
     6  O    7.984688
     7  C    5.982035
     8  O    7.967675
     9  H    0.992435
    10  C    6.006569
    11  H    0.990135
    12  C    6.035322
    13  H    0.998777
    14  C    5.986078
    15  H    0.980314
    16  H    0.989501
    17  H    1.020398
    18  N    7.024842
    19  H    0.981165
    20  C    5.983221
    21  C    5.985426
    22  H    1.021669
    23  H    1.012181
    24  H    1.024953
    25  H    1.015366
    26  H    1.020282
    27  H    1.015788
 Sum of Mulliken charges = 102.00000

 Dipole moment (field-independent basis, Debye):
    X=             -4.3226    Y=              2.0351    Z=             -0.3402  Tot=              4.7898
 Quadrupole moment (field-independent basis, Debye-Ang):
   XX=            -12.4541   YY=              3.6059   ZZ=             -3.0434
   XY=             -0.5851   XZ=            -12.9613   YZ=              5.8336

 Normal termination of Gaussian 09 at Wed Sep 27 14:40:59 2017.
