 Gaussian 09, Revision D.01,
 Gaussian 09:  ES64L-G09RevD.01 24-Apr-2013

 ------------------------------------------
 #p wb97xd 6-311++G** td=(nstates=4) nosymm
 ------------------------------------------

 -----
 Title
 -----
 Symbolic Z-matrix:
 Charge =  0 Multiplicity = 1

                          Input orientation:
 ---------------------------------------------------------------------
 Center     Atomic      Atomic             Coordinates (Angstroms)
 Number     Number       Type             X           Y           Z
 ---------------------------------------------------------------------
      1          6           0        2.019670   -1.204255   -7.518169
      2          6           0        0.824463   -0.866185   -6.906410
      3          1           0        2.188200   -0.962891   -8.563435
      4          6           0        3.025971   -1.900979   -6.789390
      5          7           0       -0.210945   -0.244287   -7.469578
      6          1           0        0.692190   -1.132436   -5.854630
      7          6           0        4.311767   -2.280951   -7.430103
      8          8           0        2.862872   -2.240626   -5.554280
      9          6           0       -0.210306    0.132364   -8.881105
     10          6           0       -1.404450    0.079822   -6.699822
     11          6           0        4.691602   -1.854386   -8.719702
     12          6           0        5.221690   -3.110952   -6.703518
     13          1           0        3.989790   -3.059676   -5.278883
     14          1           0       -0.023805   -0.750291   -9.512500
     15          1           0        0.561147    0.893400   -9.095933
     16          1           0       -1.190683    0.547156   -9.144330
     17          1           0       -1.300935   -0.317132   -5.680668
     18          1           0       -2.288938   -0.372408   -7.178413
     19          1           0       -1.542712    1.172696   -6.651177
     20          6           0        5.913097   -2.239237   -9.230257
     21          1           0        4.052006   -1.223350   -9.335096
     22          6           0        6.461334   -3.471968   -7.261380
     23          8           0        4.907265   -3.553265   -5.473643
     24          6           0        6.818592   -3.040609   -8.533840
     25          9           0        6.255097   -1.791264  -10.492981
     26          1           0        7.139705   -4.087571   -6.664064
     27          1           0        7.776615   -3.303638   -8.990048
 ---------------------------------------------------------------------

 SCF Done:  E(RwB97XD) =  -731.384619287     A.U. after   18 cycles

 Excitation energies and oscillator strengths:

 Excited state symmetry could not be determined.
 Excited State   1:      Singlet-?Sym    3.7126 eV  333.95 nm  f=0.4034  <S**2>=0.000
      55 -> 56         0.68198
      55 -> 59         0.11806
 This state for optimization and/or second-order correction.
 Total Energy, E(TD-HF/TD-KS) =  -731.248183583
 Copying the excited state density for this state as the 1-particle RhoCI density.

 Excited state symmetry could not be determined.
 Excited State   2:      Singlet-?Sym    4.1331 eV  299.98 nm  f=0.0051  <S**2>=0.000
      52 -> 56        -0.12081
      53 -> 56         0.67342

 Excited state symmetry could not be determined.
 Excited State   3:      Singlet-?Sym    4.4134 eV  280.93 nm  f=0.3337  <S**2>=0.000
      54 -> 56         0.68149
      55 -> 59         0.11470

 Excited state symmetry could not be determined.
 Excited State   4:      Singlet-?Sym    5.1892 eV  238.93 nm  f=0.0203  <S**2>=0.000
      52 -> 56         0.47838
      54 -> 59        -0.13517
      55 -> 59        -0.34622
      55 -> 61        -0.19192
      55 -> 67         0.16745

 Alpha  occ. eigenvalues --  -24.80425 -19.23729 -19.23166 -14.50794 -10.38451
 Alpha  occ. eigenvalues --  -10.36636 -10.36456 -10.35453 -10.35299 -10.35106
 Alpha  occ. eigenvalues --  -10.30607 -10.30578 -10.30441 -10.29169 -10.28723
 Alpha  occ. eigenvalues --   -1.30889  -1.14841  -1.10874  -1.10055  -0.96355
 Alpha  occ. eigenvalues --   -0.90453  -0.87322  -0.86118  -0.83776  -0.81434
 Alpha  occ. eigenvalues --   -0.75058  -0.71036  -0.69238  -0.66166  -0.64044
 Alpha  occ. eigenvalues --   -0.61634  -0.60528  -0.59679  -0.59498  -0.58028
 Alpha  occ. eigenvalues --   -0.54773  -0.54595  -0.52979  -0.52676  -0.52312
 Alpha  occ. eigenvalues --   -0.52074  -0.50925  -0.50491  -0.50320  -0.49121
 Alpha  occ. eigenvalues --   -0.47604  -0.46561  -0.44836  -0.43399  -0.42680
 Alpha  occ. eigenvalues --   -0.41149  -0.34482  -0.34284  -0.30901  -0.28428
 Alpha virt. eigenvalues --   -0.01278   0.02230   0.04065   0.04939   0.05168
 Alpha virt. eigenvalues --    0.05548   0.05666   0.06857   0.07478   0.07781
 Alpha virt. eigenvalues --    0.07837   0.08263   0.08478   0.10258   0.10857

 Mulliken charges:
               1
     1  C   -0.187732
     2  C    0.415973
     3  H    0.090969
     4  C   -0.832327
     5  N    0.137854
     6  H    0.241410
     7  C    2.000003
     8  O   -0.365112
     9  C   -0.447296
    10  C   -0.310959
    11  C   -1.478424
    12  C   -0.038427
    13  H    0.419986
    14  H    0.194494
    15  H    0.201233
    16  H    0.201658
    17  H    0.149287
    18  H    0.184416
    19  H    0.190580
    20  C   -0.634924
    21  H    0.182901
    22  C   -0.486870
    23  O   -0.369056
    24  C    0.222631
    25  F   -0.176414
    26  H    0.241084
    27  H    0.253063
 Sum of Mulliken charges =   0.00000

 Dipole moment (field-independent basis, Debye):
    X=             -6.7608    Y=              3.7398    Z=             -2.0562  Tot=              7.9951
 Quadrupole moment (field-independent basis, Debye-Ang):
   XX=           -105.9198   YY=            -99.8838   ZZ=            -67.1505
   XY=             10.4457   XZ=             45.7944   YZ=            -21.5245

 Normal termination of Gaussian 09 at Fri Nov  3 01:27:29 2017.
