 Gaussian 09, Revision D.01,
 Gaussian 09:  ES64L-G09RevD.01 24-Apr-2013

 ------------------------------------------
 #p wb97xd 6-311++G** td=(nstates=4) nosymm
 ------------------------------------------

 -----
 Title
 -----
 Symbolic Z-matrix:
 Charge =  0 Multiplicity = 1

                          Input orientation:
 ---------------------------------------------------------------------
 Center     Atomic      Atomic             Coordinates (Angstroms)
 Number     Number       Type             X           Y           Z
 ---------------------------------------------------------------------
      1          1           0        0.343892   -4.822593   -1.709483
      2          6           0        1.228370   -5.274823   -1.230892
      3          1           0        1.331885   -4.877868   -0.211728
      4          1           0        1.090118   -6.367697   -1.182237
      5          7           0        2.421885   -4.950714   -2.000648
      6          6           0        3.457284   -4.328816   -1.437470
      7          6           0        2.422514   -5.327365   -3.412175
      8          6           0        4.652490   -3.990745   -2.049229
      9          1           0        3.325010   -4.062565   -0.385690
     10          1           0        3.193977   -6.088400   -3.626993
     11          1           0        1.442137   -5.742157   -3.675390
     12          1           0        2.609015   -4.444710   -4.043570
     13          6           0        5.658801   -3.294022   -1.320450
     14          1           0        4.821030   -4.232109   -3.094495
     15          6           0        6.944597   -2.914049   -1.961163
     16          8           0        5.495702   -2.954375   -0.085340
     17          6           0        7.324422   -3.340615   -3.250762
     18          6           0        7.854520   -2.084049   -1.234578
     19          1           0        6.622621   -2.135325    0.190058
     20          6           0        8.545927   -2.955764   -3.761317
     21          1           0        6.684826   -3.971650   -3.866156
     22          6           0        9.094154   -1.723033   -1.792450
     23          8           0        7.540085   -1.641735   -0.004713
     24          6           0        9.451422   -2.154391   -3.064910
     25          9           0        8.887917   -3.403737   -5.024041
     26          1           0        9.772525   -1.107430   -1.195134
     27          1           0       10.409435   -1.891362   -3.521118
     28          6           0        0.776576    1.900979   -4.148482
     29          6           0       -0.509220    2.280951   -3.507769
     30          8           0        0.939676    2.240625   -5.383592
     31          6           0        1.782878    1.204255   -3.419703
     32          6           0       -0.889044    1.854386   -2.218170
     33          6           0       -1.419142    3.110952   -4.234354
     34          1           0       -0.187242    3.059676   -5.658989
     35          6           0        2.978084    0.866185   -4.031462
     36          1           0        1.614348    0.962891   -2.374437
     37          6           0       -2.110550    2.239237   -1.707615
     38          1           0       -0.249458    1.223350   -1.602776
     39          6           0       -2.658777    3.471968   -3.676492
     40          8           0       -1.104718    3.553265   -5.464228
     41          7           0        4.013493    0.244286   -3.468294
     42          1           0        3.110357    1.132436   -5.083242
     43          6           0       -3.016044    3.040609   -2.404022
     44          9           0       -2.452550    1.791263   -0.444891
     45          1           0       -3.337157    4.087570   -4.273807
     46          6           0        4.012854   -0.132365   -2.056767
     47          6           0        5.206998   -0.079823   -4.238050
     48          1           0       -3.974058    3.303638   -1.947824
     49          1           0        3.241401   -0.893400   -1.841939
     50          1           0        4.993231   -0.547157   -1.793542
     51          1           0        3.826352    0.750290   -1.425372
     52          1           0        5.345259   -1.172697   -4.286695
     53          1           0        5.103483    0.317132   -5.257204
     54          1           0        6.091486    0.372408   -3.759459
 ---------------------------------------------------------------------

 SCF Done:  E(RwB97XD) =  -1462.78033974     A.U. after   18 cycles

 Excitation energies and oscillator strengths:

 Excited state symmetry could not be determined.
 Excited State   1:      Singlet-?Sym    3.7056 eV  334.59 nm  f=0.3975  <S**2>=0.000
     108 ->111         0.13419
     109 ->111         0.66767
 This state for optimization and/or second-order correction.
 Total Energy, E(TD-HF/TD-KS) =  -1462.64416171
 Copying the excited state density for this state as the 1-particle RhoCI density.

 Excited state symmetry could not be determined.
 Excited State   2:      Singlet-?Sym    3.7253 eV  332.82 nm  f=0.4455  <S**2>=0.000
     110 ->112         0.67884

 Excited state symmetry could not be determined.
 Excited State   3:      Singlet-?Sym    4.1365 eV  299.73 nm  f=0.0045  <S**2>=0.000
     104 ->111         0.67698

 Excited state symmetry could not be determined.
 Excited State   4:      Singlet-?Sym    4.1524 eV  298.59 nm  f=0.0057  <S**2>=0.000
     106 ->112         0.67745

 Alpha  occ. eigenvalues --  -24.81971 -24.80478 -19.25518 -19.24871 -19.23633
 Alpha  occ. eigenvalues --  -19.22921 -14.52157 -14.50191 -10.40127 -10.38373
 Alpha  occ. eigenvalues --  -10.38202 -10.37949 -10.37239 -10.36624 -10.36193
 Alpha  occ. eigenvalues --  -10.36125 -10.36024 -10.35380 -10.34366 -10.33945
 Alpha  occ. eigenvalues --  -10.32330 -10.32291 -10.32250 -10.30891 -10.30579
 Alpha  occ. eigenvalues --  -10.30540 -10.30367 -10.30275 -10.29142 -10.28342
 Alpha  occ. eigenvalues --   -1.32426  -1.30943  -1.16624  -1.14698  -1.12606
 Alpha  occ. eigenvalues --   -1.11344  -1.10678  -1.09391  -0.98117  -0.96311
 Alpha  occ. eigenvalues --   -0.91951  -0.90022  -0.88979  -0.87165  -0.87143
 Alpha  occ. eigenvalues --   -0.85486  -0.85143  -0.83695  -0.82836  -0.80924
 Alpha  occ. eigenvalues --   -0.76713  -0.74894  -0.72581  -0.70808  -0.70735
 Alpha  occ. eigenvalues --   -0.69022  -0.67599  -0.65670  -0.65472  -0.63664
 Alpha  occ. eigenvalues --   -0.63217  -0.62095  -0.61424  -0.61197  -0.60580
 Alpha  occ. eigenvalues --   -0.60314  -0.59572  -0.59366  -0.58651  -0.57750
 Alpha  occ. eigenvalues --   -0.56307  -0.56206  -0.54656  -0.54588  -0.54495
 Alpha  occ. eigenvalues --   -0.53799  -0.53617  -0.53388  -0.53066  -0.52788
 Alpha  occ. eigenvalues --   -0.52026  -0.51886  -0.51679  -0.51392  -0.51130
 Alpha  occ. eigenvalues --   -0.50780  -0.50745  -0.50214  -0.49401  -0.49104
 Alpha  occ. eigenvalues --   -0.49066  -0.48247  -0.47200  -0.46473  -0.46355
 Alpha  occ. eigenvalues --   -0.45112  -0.44807  -0.44057  -0.43286  -0.42911
 Alpha  occ. eigenvalues --   -0.42101  -0.41112  -0.36254  -0.35997  -0.34423
 Alpha  occ. eigenvalues --   -0.34101  -0.32469  -0.30563  -0.30139  -0.28297
 Alpha virt. eigenvalues --   -0.03021  -0.01045   0.01651   0.03026   0.03349
 Alpha virt. eigenvalues --    0.03723   0.04439   0.04703   0.05224   0.05250
 Alpha virt. eigenvalues --    0.05417   0.05575   0.06333   0.06544   0.06565

 Mulliken charges:
               1
     1  H    0.189103
     2  C   -0.315976
     3  H    0.145114
     4  H    0.199824
     5  N    0.224178
     6  C    0.204186
     7  C   -0.451291
     8  C   -0.481651
     9  H    0.243911
    10  H    0.206064
    11  H    0.208541
    12  H    0.199757
    13  C   -0.477270
    14  H    0.097216
    15  C    0.947452
    16  O   -0.331005
    17  C   -0.481990
    18  C   -0.165134
    19  H    0.386788
    20  C   -0.395762
    21  H    0.266883
    22  C   -0.450506
    23  O   -0.303956
    24  C   -0.058553
    25  F   -0.161592
    26  H    0.263087
    27  H    0.267220
    28  C   -0.779186
    29  C    1.717590
    30  O   -0.373769
    31  C   -0.304290
    32  C   -1.385074
    33  C   -0.081017
    34  H    0.422562
    35  C    0.719794
    36  H    0.033209
    37  C   -0.627355
    38  H    0.173176
    39  C   -0.507323
    40  O   -0.366071
    41  N    0.214958
    42  H    0.253707
    43  C    0.159516
    44  F   -0.174699
    45  H    0.241222
    46  C   -0.329408
    47  C   -0.340960
    48  H    0.251893
    49  H    0.183047
    50  H    0.135053
    51  H    0.230993
    52  H    0.196673
    53  H    0.142204
    54  H    0.218918
 Sum of Mulliken charges =   0.00000

 Dipole moment (field-independent basis, Debye):
    X=              0.5622    Y=             -8.1314    Z=              0.2096  Tot=              8.1535
 Quadrupole moment (field-independent basis, Debye-Ang):
   XX=           -190.4358   YY=           -157.1352   ZZ=           -202.7526
   XY=              9.2605   XZ=            -17.9284   YZ=             32.7041

 Normal termination of Gaussian 09 at Fri Nov  3 04:10:22 2017.
