 Gaussian 09, Revision D.01,
 Gaussian 09:  ES64L-G09RevD.01 24-Apr-2013

 ------------------------------------------
 #p wb97xd 6-311++G** td=(nstates=4) nosymm
 ------------------------------------------

 -----
 Title
 -----
 Symbolic Z-matrix:
 Charge =  0 Multiplicity = 1

                          Input orientation:
 ---------------------------------------------------------------------
 Center     Atomic      Atomic             Coordinates (Angstroms)
 Number     Number       Type             X           Y           Z
 ---------------------------------------------------------------------
      1          1           0        0.343892   -4.822593   -1.709483
      2          6           0        1.228370   -5.274823   -1.230892
      3          1           0        1.331885   -4.877868   -0.211728
      4          1           0        1.090118   -6.367697   -1.182237
      5          7           0        2.421885   -4.950714   -2.000648
      6          6           0        3.457284   -4.328816   -1.437470
      7          6           0        2.422514   -5.327365   -3.412175
      8          6           0        4.652490   -3.990745   -2.049229
      9          1           0        3.325010   -4.062565   -0.385690
     10          1           0        3.193977   -6.088400   -3.626993
     11          1           0        1.442137   -5.742157   -3.675390
     12          1           0        2.609015   -4.444710   -4.043570
     13          6           0        5.658801   -3.294022   -1.320450
     14          1           0        4.821030   -4.232109   -3.094495
     15          6           0        6.944597   -2.914049   -1.961163
     16          8           0        5.495702   -2.954375   -0.085340
     17          6           0        7.324422   -3.340615   -3.250762
     18          6           0        7.854520   -2.084049   -1.234578
     19          1           0        6.622621   -2.135325    0.190058
     20          6           0        8.545927   -2.955764   -3.761317
     21          1           0        6.684826   -3.971650   -3.866156
     22          6           0        9.094154   -1.723033   -1.792450
     23          8           0        7.540085   -1.641735   -0.004713
     24          6           0        9.451422   -2.154391   -3.064910
     25          9           0        8.887917   -3.403737   -5.024041
     26          1           0        9.772525   -1.107430   -1.195134
     27          1           0       10.409435   -1.891362   -3.521118
 ---------------------------------------------------------------------

 SCF Done:  E(RwB97XD) =  -731.384619710     A.U. after   18 cycles

 Excitation energies and oscillator strengths:

 Excited state symmetry could not be determined.
 Excited State   1:      Singlet-?Sym    3.7126 eV  333.96 nm  f=0.4034  <S**2>=0.000
      55 -> 56         0.68198
      55 -> 59         0.11806
 This state for optimization and/or second-order correction.
 Total Energy, E(TD-HF/TD-KS) =  -731.248184318
 Copying the excited state density for this state as the 1-particle RhoCI density.

 Excited state symmetry could not be determined.
 Excited State   2:      Singlet-?Sym    4.1331 eV  299.98 nm  f=0.0051  <S**2>=0.000
      52 -> 56        -0.12079
      53 -> 56         0.67343

 Excited state symmetry could not be determined.
 Excited State   3:      Singlet-?Sym    4.4134 eV  280.93 nm  f=0.3337  <S**2>=0.000
      54 -> 56         0.68149
      55 -> 59         0.11470

 Excited state symmetry could not be determined.
 Excited State   4:      Singlet-?Sym    5.1892 eV  238.93 nm  f=0.0203  <S**2>=0.000
      52 -> 56         0.47838
      54 -> 59        -0.13517
      55 -> 59        -0.34621
      55 -> 61        -0.19193
      55 -> 67         0.16745

 Alpha  occ. eigenvalues --  -24.80425 -19.23729 -19.23166 -14.50794 -10.38451
 Alpha  occ. eigenvalues --  -10.36636 -10.36456 -10.35453 -10.35299 -10.35106
 Alpha  occ. eigenvalues --  -10.30607 -10.30578 -10.30441 -10.29169 -10.28723
 Alpha  occ. eigenvalues --   -1.30889  -1.14842  -1.10875  -1.10055  -0.96355
 Alpha  occ. eigenvalues --   -0.90453  -0.87322  -0.86118  -0.83776  -0.81434
 Alpha  occ. eigenvalues --   -0.75058  -0.71036  -0.69238  -0.66166  -0.64044
 Alpha  occ. eigenvalues --   -0.61634  -0.60528  -0.59679  -0.59498  -0.58028
 Alpha  occ. eigenvalues --   -0.54773  -0.54595  -0.52979  -0.52676  -0.52312
 Alpha  occ. eigenvalues --   -0.52074  -0.50925  -0.50491  -0.50320  -0.49121
 Alpha  occ. eigenvalues --   -0.47604  -0.46561  -0.44836  -0.43399  -0.42680
 Alpha  occ. eigenvalues --   -0.41149  -0.34482  -0.34284  -0.30901  -0.28428
 Alpha virt. eigenvalues --   -0.01278   0.02230   0.04065   0.04939   0.05168
 Alpha virt. eigenvalues --    0.05548   0.05666   0.06857   0.07478   0.07781
 Alpha virt. eigenvalues --    0.07837   0.08263   0.08478   0.10258   0.10857

 Mulliken charges:
               1
     1  H    0.184417
     2  C   -0.310964
     3  H    0.149286
     4  H    0.190581
     5  N    0.137853
     6  C    0.415948
     7  C   -0.447290
     8  C   -0.187708
     9  H    0.241411
    10  H    0.201230
    11  H    0.201658
    12  H    0.194494
    13  C   -0.832274
    14  H    0.090967
    15  C    1.999960
    16  O   -0.365113
    17  C   -1.478449
    18  C   -0.038369
    19  H    0.419986
    20  C   -0.634914
    21  H    0.182902
    22  C   -0.486900
    23  O   -0.369055
    24  C    0.222611
    25  F   -0.176412
    26  H    0.241082
    27  H    0.253062
 Sum of Mulliken charges =   0.00000

 Dipole moment (field-independent basis, Debye):
    X=             -6.7608    Y=             -3.7398    Z=             -2.0561  Tot=              7.9951
 Quadrupole moment (field-independent basis, Debye-Ang):
   XX=           -141.5194   YY=            -61.0275   ZZ=            -89.6404
   XY=             14.8303   XZ=              3.4068   YZ=             11.7535

 Normal termination of Gaussian 09 at Fri Nov  3 02:14:16 2017.
