 Gaussian 09, Revision D.01,
 Gaussian 09:  ES64L-G09RevD.01 24-Apr-2013

 ------------------------------------------
 #p wb97xd 6-311++G** td=(nstates=4) nosymm
 ------------------------------------------

 -----
 Title
 -----
 Symbolic Z-matrix:
 Charge =  0 Multiplicity = 1

                          Input orientation:
 ---------------------------------------------------------------------
 Center     Atomic      Atomic             Coordinates (Angstroms)
 Number     Number       Type             X           Y           Z
 ---------------------------------------------------------------------
      1          6           0        0.776576    1.900979   -4.148482
      2          6           0       -0.509220    2.280951   -3.507769
      3          8           0        0.939676    2.240625   -5.383592
      4          6           0        1.782878    1.204255   -3.419703
      5          6           0       -0.889044    1.854386   -2.218170
      6          6           0       -1.419142    3.110952   -4.234354
      7          1           0       -0.187242    3.059676   -5.658989
      8          6           0        2.978084    0.866185   -4.031462
      9          1           0        1.614348    0.962891   -2.374437
     10          6           0       -2.110550    2.239237   -1.707615
     11          1           0       -0.249458    1.223350   -1.602776
     12          6           0       -2.658777    3.471968   -3.676492
     13          8           0       -1.104718    3.553265   -5.464228
     14          7           0        4.013493    0.244286   -3.468294
     15          1           0        3.110357    1.132436   -5.083242
     16          6           0       -3.016044    3.040609   -2.404022
     17          9           0       -2.452550    1.791263   -0.444891
     18          1           0       -3.337157    4.087570   -4.273807
     19          6           0        4.012854   -0.132365   -2.056767
     20          6           0        5.206998   -0.079823   -4.238050
     21          1           0       -3.974058    3.303638   -1.947824
     22          1           0        3.241401   -0.893400   -1.841939
     23          1           0        4.993231   -0.547157   -1.793542
     24          1           0        3.826352    0.750290   -1.425372
     25          1           0        5.345259   -1.172697   -4.286695
     26          1           0        5.103483    0.317132   -5.257204
     27          1           0        6.091486    0.372408   -3.759459
 ---------------------------------------------------------------------

 SCF Done:  E(RwB97XD) =  -731.384619296     A.U. after   18 cycles

 Excitation energies and oscillator strengths:

 Excited state symmetry could not be determined.
 Excited State   1:      Singlet-?Sym    3.7126 eV  333.96 nm  f=0.4034  <S**2>=0.000
      55 -> 56         0.68198
      55 -> 59         0.11807
 This state for optimization and/or second-order correction.
 Total Energy, E(TD-HF/TD-KS) =  -731.248184130
 Copying the excited state density for this state as the 1-particle RhoCI density.

 Excited state symmetry could not be determined.
 Excited State   2:      Singlet-?Sym    4.1331 eV  299.98 nm  f=0.0051  <S**2>=0.000
      52 -> 56        -0.12085
      53 -> 56         0.67342

 Excited state symmetry could not be determined.
 Excited State   3:      Singlet-?Sym    4.4134 eV  280.93 nm  f=0.3337  <S**2>=0.000
      54 -> 56         0.68149
      55 -> 59         0.11470

 Excited state symmetry could not be determined.
 Excited State   4:      Singlet-?Sym    5.1892 eV  238.93 nm  f=0.0203  <S**2>=0.000
      52 -> 56         0.47838
      54 -> 59        -0.13517
      55 -> 59        -0.34622
      55 -> 61        -0.19191
      55 -> 67         0.16745

 Alpha  occ. eigenvalues --  -24.80425 -19.23729 -19.23166 -14.50794 -10.38451
 Alpha  occ. eigenvalues --  -10.36636 -10.36456 -10.35453 -10.35299 -10.35106
 Alpha  occ. eigenvalues --  -10.30607 -10.30578 -10.30441 -10.29169 -10.28723
 Alpha  occ. eigenvalues --   -1.30889  -1.14841  -1.10874  -1.10055  -0.96355
 Alpha  occ. eigenvalues --   -0.90453  -0.87322  -0.86118  -0.83776  -0.81434
 Alpha  occ. eigenvalues --   -0.75058  -0.71036  -0.69238  -0.66166  -0.64044
 Alpha  occ. eigenvalues --   -0.61634  -0.60528  -0.59679  -0.59498  -0.58028
 Alpha  occ. eigenvalues --   -0.54773  -0.54595  -0.52979  -0.52676  -0.52312
 Alpha  occ. eigenvalues --   -0.52074  -0.50925  -0.50491  -0.50320  -0.49121
 Alpha  occ. eigenvalues --   -0.47604  -0.46561  -0.44836  -0.43399  -0.42680
 Alpha  occ. eigenvalues --   -0.41149  -0.34482  -0.34284  -0.30901  -0.28428
 Alpha virt. eigenvalues --   -0.01279   0.02230   0.04065   0.04939   0.05168
 Alpha virt. eigenvalues --    0.05548   0.05666   0.06857   0.07478   0.07781
 Alpha virt. eigenvalues --    0.07837   0.08263   0.08478   0.10258   0.10857

 Mulliken charges:
               1
     1  C   -0.832340
     2  C    2.000023
     3  O   -0.365111
     4  C   -0.187716
     5  C   -1.478440
     6  C   -0.038440
     7  H    0.419985
     8  C    0.415985
     9  H    0.090970
    10  C   -0.634942
    11  H    0.182901
    12  C   -0.486847
    13  O   -0.369058
    14  N    0.137853
    15  H    0.241410
    16  C    0.222621
    17  F   -0.176413
    18  H    0.241084
    19  C   -0.447296
    20  C   -0.310959
    21  H    0.253063
    22  H    0.201233
    23  H    0.201658
    24  H    0.194494
    25  H    0.190580
    26  H    0.149287
    27  H    0.184416
 Sum of Mulliken charges =   0.00000

 Dipole moment (field-independent basis, Debye):
    X=              6.7608    Y=             -3.7398    Z=              2.0562  Tot=              7.9951
 Quadrupole moment (field-independent basis, Debye-Ang):
   XX=            -54.5036   YY=            -99.8840   ZZ=           -112.1306
   XY=             -3.7749   XZ=            -20.3355   YZ=             19.3809

 Normal termination of Gaussian 09 at Fri Nov  3 02:01:48 2017.
