 Gaussian 09, Revision D.01,
 Gaussian 09:  ES64L-G09RevD.01 24-Apr-2013

 ------------------------------------------
 #p wb97xd 6-311++G** td=(nstates=4) nosymm
 ------------------------------------------

 -----
 Title
 -----
 Symbolic Z-matrix:
 Charge =  0 Multiplicity = 1

                          Input orientation:
 ---------------------------------------------------------------------
 Center     Atomic      Atomic             Coordinates (Angstroms)
 Number     Number       Type             X           Y           Z
 ---------------------------------------------------------------------
      1          6           0        2.019670   -1.204255   -7.518169
      2          6           0        0.824463   -0.866185   -6.906410
      3          1           0        2.188200   -0.962891   -8.563435
      4          6           0        3.025971   -1.900979   -6.789390
      5          7           0       -0.210945   -0.244287   -7.469578
      6          1           0        0.692190   -1.132436   -5.854630
      7          6           0        4.311767   -2.280951   -7.430103
      8          8           0        2.862872   -2.240626   -5.554280
      9          6           0       -0.210306    0.132364   -8.881105
     10          6           0       -1.404450    0.079822   -6.699822
     11          6           0        4.691602   -1.854386   -8.719702
     12          6           0        5.221690   -3.110952   -6.703518
     13          1           0        3.989790   -3.059676   -5.278883
     14          1           0       -0.023805   -0.750291   -9.512500
     15          1           0        0.561147    0.893400   -9.095933
     16          1           0       -1.190683    0.547156   -9.144330
     17          1           0       -1.300935   -0.317132   -5.680668
     18          1           0       -2.288938   -0.372408   -7.178413
     19          1           0       -1.542712    1.172696   -6.651177
     20          6           0        5.913097   -2.239237   -9.230257
     21          1           0        4.052006   -1.223350   -9.335096
     22          6           0        6.461334   -3.471968   -7.261380
     23          8           0        4.907265   -3.553265   -5.473643
     24          6           0        6.818592   -3.040609   -8.533840
     25          9           0        6.255097   -1.791264  -10.492981
     26          1           0        7.139705   -4.087571   -6.664064
     27          1           0        7.776615   -3.303638   -8.990048
     28          1           0        0.343892   -4.822593   -1.709483
     29          6           0        1.228370   -5.274823   -1.230892
     30          1           0        1.331885   -4.877868   -0.211728
     31          1           0        1.090118   -6.367697   -1.182237
     32          7           0        2.421885   -4.950714   -2.000648
     33          6           0        3.457284   -4.328816   -1.437470
     34          6           0        2.422514   -5.327365   -3.412175
     35          6           0        4.652490   -3.990745   -2.049229
     36          1           0        3.325010   -4.062565   -0.385690
     37          1           0        3.193977   -6.088400   -3.626993
     38          1           0        1.442137   -5.742157   -3.675390
     39          1           0        2.609015   -4.444710   -4.043570
     40          6           0        5.658801   -3.294022   -1.320450
     41          1           0        4.821030   -4.232109   -3.094495
     42          6           0        6.944597   -2.914049   -1.961163
     43          8           0        5.495702   -2.954375   -0.085340
     44          6           0        7.324422   -3.340615   -3.250762
     45          6           0        7.854520   -2.084049   -1.234578
     46          1           0        6.622621   -2.135325    0.190058
     47          6           0        8.545927   -2.955764   -3.761317
     48          1           0        6.684826   -3.971650   -3.866156
     49          6           0        9.094154   -1.723033   -1.792450
     50          8           0        7.540085   -1.641735   -0.004713
     51          6           0        9.451422   -2.154391   -3.064910
     52          9           0        8.887917   -3.403737   -5.024041
     53          1           0        9.772525   -1.107430   -1.195134
     54          1           0       10.409435   -1.891362   -3.521118
 ---------------------------------------------------------------------

 SCF Done:  E(RwB97XD) =  -1462.78011946     A.U. after   18 cycles

 Excitation energies and oscillator strengths:

 Excited state symmetry could not be determined.
 Excited State   1:      Singlet-?Sym    3.7080 eV  334.37 nm  f=0.3090  <S**2>=0.000
     108 ->111        -0.15969
     109 ->111         0.65333
     109 ->116        -0.10923
     110 ->112        -0.10399
 This state for optimization and/or second-order correction.
 Total Energy, E(TD-HF/TD-KS) =  -1462.64385423
 Copying the excited state density for this state as the 1-particle RhoCI density.

 Excited state symmetry could not be determined.
 Excited State   2:      Singlet-?Sym    3.7370 eV  331.77 nm  f=0.4760  <S**2>=0.000
     110 ->112         0.67234

 Excited state symmetry could not be determined.
 Excited State   3:      Singlet-?Sym    4.1544 eV  298.44 nm  f=0.0064  <S**2>=0.000
     105 ->112        -0.16111
     106 ->112        -0.66314

 Excited state symmetry could not be determined.
 Excited State   4:      Singlet-?Sym    4.2097 eV  294.52 nm  f=0.0027  <S**2>=0.000
     103 ->111         0.67740

 Alpha  occ. eigenvalues --  -24.80725 -24.79451 -19.25010 -19.24121 -19.22397
 Alpha  occ. eigenvalues --  -19.21612 -14.51492 -14.49107 -10.39296 -10.37206
 Alpha  occ. eigenvalues --  -10.37048 -10.36794 -10.36096 -10.35922 -10.35657
 Alpha  occ. eigenvalues --  -10.35163 -10.34717 -10.34111 -10.34022 -10.33008
 Alpha  occ. eigenvalues --  -10.31064 -10.30971 -10.30846 -10.29441 -10.29382
 Alpha  occ. eigenvalues --  -10.29292 -10.28875 -10.28716 -10.27781 -10.26700
 Alpha  occ. eigenvalues --   -1.31182  -1.29930  -1.15977  -1.13420  -1.11940
 Alpha  occ. eigenvalues --   -1.10754  -1.09403  -1.08396  -0.96793  -0.94850
 Alpha  occ. eigenvalues --   -0.91145  -0.88729  -0.87776  -0.86720  -0.85784
 Alpha  occ. eigenvalues --   -0.84418  -0.84247  -0.82307  -0.82075  -0.79827
 Alpha  occ. eigenvalues --   -0.75585  -0.73556  -0.71594  -0.69879  -0.69432
 Alpha  occ. eigenvalues --   -0.67841  -0.66865  -0.64635  -0.64454  -0.62594
 Alpha  occ. eigenvalues --   -0.62332  -0.61075  -0.60392  -0.60225  -0.60113
 Alpha  occ. eigenvalues --   -0.59007  -0.58794  -0.58144  -0.57859  -0.56440
 Alpha  occ. eigenvalues --   -0.55343  -0.54923  -0.53735  -0.53515  -0.53252
 Alpha  occ. eigenvalues --   -0.53194  -0.52934  -0.52788  -0.51797  -0.51321
 Alpha  occ. eigenvalues --   -0.51123  -0.50948  -0.50927  -0.50795  -0.50497
 Alpha  occ. eigenvalues --   -0.49601  -0.49427  -0.49018  -0.48661  -0.48347
 Alpha  occ. eigenvalues --   -0.47889  -0.47369  -0.45831  -0.45189  -0.45061
 Alpha  occ. eigenvalues --   -0.44384  -0.43462  -0.43252  -0.42027  -0.41703
 Alpha  occ. eigenvalues --   -0.41016  -0.39766  -0.35307  -0.34888  -0.32966
 Alpha  occ. eigenvalues --   -0.32780  -0.31569  -0.29195  -0.29118  -0.26972
 Alpha virt. eigenvalues --   -0.01993   0.00278   0.01680   0.02885   0.03782
 Alpha virt. eigenvalues --    0.04459   0.04855   0.04970   0.05375   0.05648
 Alpha virt. eigenvalues --    0.06199   0.06443   0.06524   0.06834   0.07003

 Mulliken charges:
               1
     1  C   -0.659683
     2  C    0.366676
     3  H    0.081525
     4  C   -0.654723
     5  N    0.154826
     6  H    0.258202
     7  C    1.971119
     8  O   -0.273767
     9  C   -0.441963
    10  C   -0.298104
    11  C   -1.297957
    12  C   -0.048000
    13  H    0.415054
    14  H    0.196093
    15  H    0.203136
    16  H    0.204345
    17  H    0.135331
    18  H    0.184457
    19  H    0.194912
    20  C   -0.789333
    21  H    0.199298
    22  C   -0.268252
    23  O   -0.280469
    24  C    0.139344
    25  F   -0.168141
    26  H    0.232697
    27  H    0.267610
    28  H    0.172915
    29  C   -0.286888
    30  H    0.140274
    31  H    0.190781
    32  N    0.161986
    33  C    0.398773
    34  C   -0.440153
    35  C   -0.336960
    36  H    0.238953
    37  H    0.202562
    38  H    0.198294
    39  H    0.120163
    40  C   -0.623991
    41  H    0.086958
    42  C    1.031037
    43  O   -0.388487
    44  C   -0.145421
    45  C   -0.310169
    46  H    0.423805
    47  C   -0.451572
    48  H    0.173487
    49  C   -0.456616
    50  O   -0.375476
    51  C   -0.058857
    52  F   -0.170708
    53  H    0.236681
    54  H    0.244396
 Sum of Mulliken charges =   0.00000

 Dipole moment (field-independent basis, Debye):
    X=            -13.3723    Y=              0.2859    Z=             -5.2867  Tot=             14.3823
 Quadrupole moment (field-independent basis, Debye-Ang):
   XX=           -248.7473   YY=           -162.6484   ZZ=           -147.3293
   XY=             23.9374   XZ=             41.8799   YZ=             -8.2690

 Normal termination of Gaussian 09 at Fri Nov  3 03:47:51 2017.
