 Gaussian 09, Revision D.01,
 Gaussian 09:  ES64L-G09RevD.01 24-Apr-2013

 ------------------------------------------
 #p wb97xd 6-311++G** td=(nstates=4) nosymm
 ------------------------------------------

 -----
 Title
 -----
 Symbolic Z-matrix:
 Charge =  0 Multiplicity = 1

                          Input orientation:
 ---------------------------------------------------------------------
 Center     Atomic      Atomic             Coordinates (Angstroms)
 Number     Number       Type             X           Y           Z
 ---------------------------------------------------------------------
      1          6           0        2.019670   -1.204255   -7.518169
      2          6           0        0.824463   -0.866185   -6.906410
      3          1           0        2.188200   -0.962891   -8.563435
      4          6           0        3.025971   -1.900979   -6.789390
      5          7           0       -0.210945   -0.244287   -7.469578
      6          1           0        0.692190   -1.132436   -5.854630
      7          6           0        4.311767   -2.280951   -7.430103
      8          8           0        2.862872   -2.240626   -5.554280
      9          6           0       -0.210306    0.132364   -8.881105
     10          6           0       -1.404450    0.079822   -6.699822
     11          6           0        4.691602   -1.854386   -8.719702
     12          6           0        5.221690   -3.110952   -6.703518
     13          1           0        3.989790   -3.059676   -5.278883
     14          1           0       -0.023805   -0.750291   -9.512500
     15          1           0        0.561147    0.893400   -9.095933
     16          1           0       -1.190683    0.547156   -9.144330
     17          1           0       -1.300935   -0.317132   -5.680668
     18          1           0       -2.288938   -0.372408   -7.178413
     19          1           0       -1.542712    1.172696   -6.651177
     20          6           0        5.913097   -2.239237   -9.230257
     21          1           0        4.052006   -1.223350   -9.335096
     22          6           0        6.461334   -3.471968   -7.261380
     23          8           0        4.907265   -3.553265   -5.473643
     24          6           0        6.818592   -3.040609   -8.533840
     25          9           0        6.255097   -1.791264  -10.492981
     26          1           0        7.139705   -4.087571   -6.664064
     27          1           0        7.776615   -3.303638   -8.990048
     28          6           0        0.776576    1.900979   -4.148482
     29          6           0       -0.509220    2.280951   -3.507769
     30          8           0        0.939676    2.240625   -5.383592
     31          6           0        1.782878    1.204255   -3.419703
     32          6           0       -0.889044    1.854386   -2.218170
     33          6           0       -1.419142    3.110952   -4.234354
     34          1           0       -0.187242    3.059676   -5.658989
     35          6           0        2.978084    0.866185   -4.031462
     36          1           0        1.614348    0.962891   -2.374437
     37          6           0       -2.110550    2.239237   -1.707615
     38          1           0       -0.249458    1.223350   -1.602776
     39          6           0       -2.658777    3.471968   -3.676492
     40          8           0       -1.104718    3.553265   -5.464228
     41          7           0        4.013493    0.244286   -3.468294
     42          1           0        3.110357    1.132436   -5.083242
     43          6           0       -3.016044    3.040609   -2.404022
     44          9           0       -2.452550    1.791263   -0.444891
     45          1           0       -3.337157    4.087570   -4.273807
     46          6           0        4.012854   -0.132365   -2.056767
     47          6           0        5.206998   -0.079823   -4.238050
     48          1           0       -3.974058    3.303638   -1.947824
     49          1           0        3.241401   -0.893400   -1.841939
     50          1           0        4.993231   -0.547157   -1.793542
     51          1           0        3.826352    0.750290   -1.425372
     52          1           0        5.345259   -1.172697   -4.286695
     53          1           0        5.103483    0.317132   -5.257204
     54          1           0        6.091486    0.372408   -3.759459
 ---------------------------------------------------------------------

 SCF Done:  E(RwB97XD) =  -1462.79244222     A.U. after   17 cycles

 Excitation energies and oscillator strengths:

 Excited state symmetry could not be determined.
 Excited State   1:      Singlet-?Sym    3.7099 eV  334.20 nm  f=0.0000  <S**2>=0.000
     109 ->111         0.48541
     110 ->112         0.48470
 This state for optimization and/or second-order correction.
 Total Energy, E(TD-HF/TD-KS) =  -1462.65610495
 Copying the excited state density for this state as the 1-particle RhoCI density.

 Excited state symmetry could not be determined.
 Excited State   2:      Singlet-?Sym    3.7987 eV  326.39 nm  f=0.7982  <S**2>=0.000
     109 ->112         0.45024
     110 ->111         0.49384

 Excited state symmetry could not be determined.
 Excited State   3:      Singlet-?Sym    4.2303 eV  293.08 nm  f=0.0000  <S**2>=0.000
     105 ->112        -0.42871
     106 ->111         0.44941
     107 ->111        -0.22233
     108 ->112         0.17558

 Excited state symmetry could not be determined.
 Excited State   4:      Singlet-?Sym    4.2715 eV  290.26 nm  f=0.0000  <S**2>=0.000
     105 ->112        -0.19647
     106 ->111         0.20066
     107 ->111         0.44311
     108 ->112        -0.41906
     110 ->117         0.10811

 Alpha  occ. eigenvalues --  -24.81039 -24.81039 -19.24824 -19.24824 -19.23625
 Alpha  occ. eigenvalues --  -19.23625 -14.50249 -14.50249 -10.38800 -10.38800
 Alpha  occ. eigenvalues --  -10.37382 -10.37382 -10.36282 -10.36282 -10.36173
 Alpha  occ. eigenvalues --  -10.36173 -10.34251 -10.34251 -10.33708 -10.33708
 Alpha  occ. eigenvalues --  -10.31339 -10.31339 -10.31263 -10.31263 -10.31210
 Alpha  occ. eigenvalues --  -10.31210 -10.30017 -10.30017 -10.28553 -10.28553
 Alpha  occ. eigenvalues --   -1.31498  -1.31497  -1.15752  -1.15745  -1.11613
 Alpha  occ. eigenvalues --   -1.11581  -1.09319  -1.09288  -0.97111  -0.97111
 Alpha  occ. eigenvalues --   -0.90317  -0.90264  -0.87766  -0.87710  -0.85100
 Alpha  occ. eigenvalues --   -0.85095  -0.84467  -0.84466  -0.81106  -0.81054
 Alpha  occ. eigenvalues --   -0.75579  -0.75541  -0.71311  -0.71281  -0.69645
 Alpha  occ. eigenvalues --   -0.69572  -0.66027  -0.65964  -0.64094  -0.63924
 Alpha  occ. eigenvalues --   -0.62112  -0.62045  -0.60814  -0.60790  -0.59982
 Alpha  occ. eigenvalues --   -0.59947  -0.58516  -0.58375  -0.58175  -0.58163
 Alpha  occ. eigenvalues --   -0.55283  -0.55241  -0.55028  -0.54963  -0.53443
 Alpha  occ. eigenvalues --   -0.53407  -0.52602  -0.52507  -0.52165  -0.52065
 Alpha  occ. eigenvalues --   -0.51726  -0.51659  -0.51022  -0.50906  -0.50793
 Alpha  occ. eigenvalues --   -0.50618  -0.49888  -0.49851  -0.49271  -0.49263
 Alpha  occ. eigenvalues --   -0.47675  -0.47446  -0.47232  -0.46911  -0.45548
 Alpha  occ. eigenvalues --   -0.45546  -0.44242  -0.44187  -0.42352  -0.42244
 Alpha  occ. eigenvalues --   -0.42026  -0.41694  -0.35268  -0.35218  -0.34935
 Alpha  occ. eigenvalues --   -0.34933  -0.30973  -0.30968  -0.29121  -0.28915
 Alpha virt. eigenvalues --   -0.01751  -0.01455   0.03094   0.03440   0.04268
 Alpha virt. eigenvalues --    0.04424   0.04707   0.04850   0.05218   0.05361
 Alpha virt. eigenvalues --    0.06040   0.06145   0.06637   0.07035   0.07211

 Mulliken charges:
               1
     1  C   -0.708836
     2  C    0.266795
     3  H    0.116445
     4  C   -0.449696
     5  N    0.303591
     6  H    0.227176
     7  C    1.513282
     8  O   -0.282330
     9  C   -0.429466
    10  C   -0.433352
    11  C   -1.038252
    12  C    0.046200
    13  H    0.370718
    14  H    0.189987
    15  H    0.215366
    16  H    0.207608
    17  H    0.142247
    18  H    0.186811
    19  H    0.231280
    20  C   -0.592881
    21  H    0.240020
    22  C   -0.432661
    23  O   -0.287831
    24  C    0.058439
    25  F   -0.165879
    26  H    0.246715
    27  H    0.258501
    28  C   -0.449712
    29  C    1.513295
    30  O   -0.282329
    31  C   -0.708819
    32  C   -1.038236
    33  C    0.046183
    34  H    0.370718
    35  C    0.266801
    36  H    0.116445
    37  C   -0.592888
    38  H    0.240021
    39  C   -0.432661
    40  O   -0.287832
    41  N    0.303589
    42  H    0.227176
    43  C    0.058432
    44  F   -0.165878
    45  H    0.246715
    46  C   -0.429465
    47  C   -0.433351
    48  H    0.258500
    49  H    0.215366
    50  H    0.207607
    51  H    0.189987
    52  H    0.231279
    53  H    0.142247
    54  H    0.186811
 Sum of Mulliken charges =   0.00000

 Dipole moment (field-independent basis, Debye):
    X=              0.0000    Y=              0.0000    Z=              0.0000  Tot=              0.0000
 Quadrupole moment (field-independent basis, Debye-Ang):
   XX=           -161.3848   YY=           -200.7323   ZZ=           -176.9442
   XY=              7.4444   XZ=             25.9083   YZ=             -2.0343

 Normal termination of Gaussian 09 at Fri Nov  3 04:07:11 2017.
