 Gaussian 09, Revision C.01,
 Gaussian 09:  EM64L-G09RevC.01 23-Sep-2011

 ----------------------------------------------------
 # opt=restart wb97xd/6-311++g** td(nstates=1,root=1)
 ----------------------------------------------------

 SCF Done:  E(RwB97XD) =  -863.076934773     A.U. after   22 cycles
 SCF Done:  E(RwB97XD) =  -863.077414378     A.U. after   22 cycles
 SCF Done:  E(RwB97XD) =  -863.078429914     A.U. after   19 cycles
 SCF Done:  E(RwB97XD) =  -863.079212776     A.U. after   19 cycles
 SCF Done:  E(RwB97XD) =  -863.080128488     A.U. after   19 cycles
 SCF Done:  E(RwB97XD) =  -863.080772598     A.U. after   19 cycles
 SCF Done:  E(RwB97XD) =  -863.081369098     A.U. after   19 cycles
 SCF Done:  E(RwB97XD) =  -863.081603149     A.U. after   18 cycles
 SCF Done:  E(RwB97XD) =  -863.081620452     A.U. after   18 cycles
 SCF Done:  E(RwB97XD) =  -863.081473034     A.U. after   18 cycles
 SCF Done:  E(RwB97XD) =  -863.081187709     A.U. after   17 cycles
 SCF Done:  E(RwB97XD) =  -863.080827125     A.U. after   19 cycles
 SCF Done:  E(RwB97XD) =  -863.080639987     A.U. after   18 cycles
 SCF Done:  E(RwB97XD) =  -863.080528880     A.U. after   18 cycles
 SCF Done:  E(RwB97XD) =  -863.080499541     A.U. after   17 cycles
 SCF Done:  E(RwB97XD) =  -863.080477711     A.U. after   18 cycles
 SCF Done:  E(RwB97XD) =  -863.080476157     A.U. after   11 cycles
 SCF Done:  E(RwB97XD) =  -863.080478684     A.U. after   10 cycles

 Excitation energies and oscillator strengths:

 Excited State   1:      Singlet-A      0.3571 eV 3471.49 nm  f=0.0000  <S**2>=0.000
      71 -> 72         0.68245
      71 -> 77        -0.12077
 This state for optimization and/or second-order correction.
 Total Energy, E(TD-HF/TD-KS) =  -863.067353664
 Copying the excited state density for this state as the 1-particle RhoCI density.

 Optimization completed.
    -- Stationary point found.

                         Standard orientation:
 ---------------------------------------------------------------------
 Center     Atomic      Atomic             Coordinates (Angstroms)
 Number     Number       Type             X           Y           Z
 ---------------------------------------------------------------------
      1          6           0        4.213517    0.074935    1.013708
      2          6           0        5.384442    0.926932    1.029674
      3          1           0        5.878883    1.067864    1.983381
      4          6           0        5.836416    1.513649   -0.116577
      5          1           0        6.716424    2.146489   -0.097647
      6          6           0        5.163134    1.301774   -1.339162
      7          1           0        5.533108    1.774966   -2.240743
      8          6           0        4.025680    0.501740   -1.395979
      9          1           0        3.514328    0.356901   -2.340448
     10          6           0        3.523092   -0.093604   -0.253801
     11          6           0        2.305287   -0.936235   -0.284141
     12          6           0        1.030251   -0.422085   -0.184413
     13          1           0        0.974864    0.654492   -0.066373
     14          6           0       -0.125990   -1.173560   -0.214811
     15          1           0       -0.018892   -2.247961   -0.321503
     16          6           0       -1.476537   -0.672325   -0.111700
     17          6           0       -1.809626    0.686337    0.007358
     18          1           0       -1.028344    1.437694    0.018744
     19          6           0       -3.119719    1.114951    0.107195
     20          1           0       -3.306208    2.176952    0.193045
     21          6           0       -4.191653    0.201745    0.102288
     22          6           0       -3.867901   -1.160681   -0.032835
     23          1           0       -4.646461   -1.910904   -0.059931
     24          6           0       -2.552462   -1.573185   -0.131973
     25          1           0       -2.345889   -2.634129   -0.233174
     26          6           0       -5.802547    2.034553    0.094451
     27          1           0       -5.294312    2.620525    0.865336
     28          1           0       -6.873154    2.187761    0.226589
     29          1           0       -5.513984    2.435057   -0.888634
     30          6           0       -6.570133   -0.317204   -0.032825
     31          1           0       -6.538084   -0.715929   -1.057564
     32          1           0       -7.529807    0.177607    0.112944
     33          1           0       -6.529817   -1.159600    0.663505
     34          7           0       -5.504732    0.625259    0.233816
     35          8           0        3.819625   -0.515969    2.036737
     36          1           0        3.350855   -2.533873   -0.206286
     37          8           0        2.480137   -2.266173   -0.502575
 ---------------------------------------------------------------------

 The electronic state is 1-A.
 Alpha  occ. eigenvalues --  -19.32718 -19.12693 -14.50271 -10.42768 -10.38362
 Alpha  occ. eigenvalues --  -10.37175 -10.35059 -10.35011 -10.33945 -10.33842
 Alpha  occ. eigenvalues --  -10.33517 -10.32609 -10.32501 -10.31994 -10.29603
 Alpha  occ. eigenvalues --  -10.26472 -10.25188 -10.24828 -10.23296 -10.22580
 Alpha  occ. eigenvalues --   -1.21269  -1.10214  -1.04500  -1.00732  -0.95550
 Alpha  occ. eigenvalues --   -0.91442  -0.89863  -0.89489  -0.86219  -0.84711
 Alpha  occ. eigenvalues --   -0.81353  -0.78234  -0.76183  -0.75177  -0.72166
 Alpha  occ. eigenvalues --   -0.70530  -0.68446  -0.66132  -0.64476  -0.63324
 Alpha  occ. eigenvalues --   -0.61142  -0.59831  -0.59703  -0.58725  -0.58179
 Alpha  occ. eigenvalues --   -0.55476  -0.54919  -0.54759  -0.53333  -0.53026
 Alpha  occ. eigenvalues --   -0.52658  -0.51457  -0.50888  -0.50328  -0.49716
 Alpha  occ. eigenvalues --   -0.49463  -0.49052  -0.46820  -0.45710  -0.44646
 Alpha  occ. eigenvalues --   -0.43845  -0.43536  -0.40377  -0.39592  -0.38614
 Alpha  occ. eigenvalues --   -0.37677  -0.36032  -0.31123  -0.30274  -0.26101
 Alpha  occ. eigenvalues --   -0.21406
 Alpha virt. eigenvalues --   -0.07853   0.01550   0.01616   0.03028   0.03498
 Alpha virt. eigenvalues --    0.03856   0.04720   0.05079   0.05175   0.06488
 Alpha virt. eigenvalues --    0.06712   0.06780   0.07038   0.07415   0.07747

 Mulliken atomic charges:
              1
     1  C   -0.437956
     2  C    0.022748
     3  H    0.213962
     4  C   -0.278015
     5  H    0.187566
     6  C   -0.454288
     7  H    0.169977
     8  C   -0.175256
     9  H    0.195540
    10  C    1.128103
    11  C   -0.169014
    12  C   -0.587243
    13  H    0.193537
    14  C    0.232121
    15  H    0.250233
    16  C    1.147887
    17  C   -0.936666
    18  H    0.126019
    19  C   -0.492967
    20  H    0.250506
    21  C   -0.733030
    22  C   -0.128955
    23  H    0.202045
    24  C   -0.198463
    25  H    0.220131
    26  C   -0.431545
    27  H    0.168815
    28  H    0.164048
    29  H    0.196484
    30  C   -0.428428
    31  H    0.195849
    32  H    0.160189
    33  H    0.170723
    34  N    0.091300
    35  O   -0.459397
    36  H    0.355231
    37  O   -0.131792
 Sum of Mulliken atomic charges =   0.00000

 Dipole moment (field-independent basis, Debye):
    X=            -15.6676    Y=             -0.6958    Z=             -4.2382  Tot=             16.2456
 Quadrupole moment (field-independent basis, Debye-Ang):
   XX=           -106.9364   YY=           -106.1152   ZZ=           -133.7764
   XY=             -7.5478   XZ=            -13.1582   YZ=              3.8861

 Normal termination of Gaussian 09 at Wed Oct 28 21:21:34 2015.
