 Gaussian 09, Revision C.01,
 Gaussian 09:  EM64L-G09RevC.01 23-Sep-2011

 -----------------------
 # opt wb97xd/6-311++g**
 -----------------------

 99/9=1/99;
 --------
 H Ketone
 --------
 Charge =  0 Multiplicity = 1

 SCF Done:  E(RwB97XD) =  -862.830675288     A.U. after   18 cycles
 SCF Done:  E(RwB97XD) =  -862.985494434     A.U. after   16 cycles
 SCF Done:  E(RwB97XD) =  -863.134084916     A.U. after   16 cycles
 SCF Done:  E(RwB97XD) =  -863.131776342     A.U. after   18 cycles
 SCF Done:  E(RwB97XD) =  -863.145783511     A.U. after   18 cycles
 SCF Done:  E(RwB97XD) =  -863.153394524     A.U. after   17 cycles
 SCF Done:  E(RwB97XD) =  -863.153151945     A.U. after   15 cycles
 SCF Done:  E(RwB97XD) =  -863.154529562     A.U. after   14 cycles
 SCF Done:  E(RwB97XD) =  -863.155096632     A.U. after   14 cycles
 SCF Done:  E(RwB97XD) =  -863.155069465     A.U. after   14 cycles
 SCF Done:  E(RwB97XD) =  -863.170179991     A.U. after   11 cycles
 SCF Done:  E(RwB97XD) =  -863.170179936     A.U. after   11 cycles
 SCF Done:  E(RwB97XD) =  -863.170179905     A.U. after   11 cycles
 SCF Done:  E(RwB97XD) =  -863.170179906     A.U. after   10 cycles
 SCF Done:  E(RwB97XD) =  -863.170179931     A.U. after   10 cycles
 SCF Done:  E(RwB97XD) =  -863.170179986     A.U. after   10 cycles
 SCF Done:  E(RwB97XD) =  -863.170180039     A.U. after   10 cycles
 SCF Done:  E(RwB97XD) =  -863.170180093     A.U. after   10 cycles
 SCF Done:  E(RwB97XD) =  -863.170180120     A.U. after    8 cycles
 SCF Done:  E(RwB97XD) =  -863.170180140     A.U. after    9 cycles
 Optimization completed.
    -- Stationary point found.

                         Standard orientation:
 ---------------------------------------------------------------------
 Center     Atomic      Atomic             Coordinates (Angstroms)
 Number     Number       Type             X           Y           Z
 ---------------------------------------------------------------------
      1          6           0        4.776554   -0.493741    0.081062
      2          6           0        5.918597    0.316787    0.088087
      3          1           0        6.883478   -0.165279    0.187884
      4          6           0        5.803172    1.685101   -0.037930
      5          1           0        6.698250    2.297831   -0.036150
      6          6           0        4.548472    2.285031   -0.174650
      7          1           0        4.461036    3.358781   -0.285820
      8          6           0        3.418901    1.493055   -0.168869
      9          1           0        2.453970    1.969269   -0.285068
     10          6           0        3.494245    0.096272   -0.035121
     11          6           0        2.295457   -0.773016   -0.017103
     12          6           0        0.950745   -0.178524    0.011423
     13          1           0        0.851934    0.894430    0.100597
     14          6           0       -0.134735   -0.968005   -0.051477
     15          1           0        0.051776   -2.036634   -0.137728
     16          6           0       -1.531519   -0.565833   -0.018743
     17          6           0       -1.955617    0.763467    0.110435
     18          1           0       -1.224058    1.559872    0.191602
     19          6           0       -3.291979    1.101596    0.138320
     20          1           0       -3.558891    2.144813    0.238580
     21          6           0       -4.295964    0.112034    0.040919
     22          6           0       -3.873866   -1.225323   -0.097095
     23          1           0       -4.598281   -2.023336   -0.185191
     24          6           0       -2.528734   -1.541650   -0.122061
     25          1           0       -2.239260   -2.582569   -0.228493
     26          6           0       -6.027527    1.833128    0.113166
     27          1           0       -5.633927    2.341432    0.999644
     28          1           0       -7.113901    1.892890    0.155581
     29          1           0       -5.690392    2.379861   -0.777069
     30          6           0       -6.630526   -0.581884   -0.120988
     31          1           0       -6.544865   -1.053321   -1.108666
     32          1           0       -7.619691   -0.133595   -0.043226
     33          1           0       -6.560186   -1.365015    0.641362
     34          7           0       -5.627407    0.441974    0.082800
     35          8           0        4.957190   -1.809917    0.188909
     36          1           0        4.065759   -2.223557    0.128740
     37          8           0        2.429690   -2.002667   -0.010462
 ---------------------------------------------------------------------

 The electronic state is 1-A.
 Alpha  occ. eigenvalues --  -19.25946 -19.23445 -14.47008 -10.38114 -10.35794
 Alpha  occ. eigenvalues --  -10.34667 -10.32940 -10.32893 -10.30937 -10.30146
 Alpha  occ. eigenvalues --  -10.30073 -10.30040 -10.29816 -10.29760 -10.29643
 Alpha  occ. eigenvalues --  -10.29380 -10.29147 -10.28649 -10.28487 -10.28317
 Alpha  occ. eigenvalues --   -1.17066  -1.13802  -1.07391  -0.97037  -0.96295
 Alpha  occ. eigenvalues --   -0.90843  -0.87393  -0.86708  -0.84954  -0.84330
 Alpha  occ. eigenvalues --   -0.83784  -0.78670  -0.74872  -0.72217  -0.71462
 Alpha  occ. eigenvalues --   -0.69911  -0.68018  -0.64750  -0.63154  -0.61647
 Alpha  occ. eigenvalues --   -0.60849  -0.58709  -0.57859  -0.57343  -0.55973
 Alpha  occ. eigenvalues --   -0.55198  -0.54402  -0.53046  -0.52288  -0.52258
 Alpha  occ. eigenvalues --   -0.51900  -0.51430  -0.51025  -0.49766  -0.48319
 Alpha  occ. eigenvalues --   -0.48089  -0.47468  -0.47164  -0.47050  -0.46012
 Alpha  occ. eigenvalues --   -0.45401  -0.42991  -0.42851  -0.42372  -0.41033
 Alpha  occ. eigenvalues --   -0.35092  -0.34492  -0.34443  -0.33894  -0.30089
 Alpha  occ. eigenvalues --   -0.27102
 Alpha virt. eigenvalues --   -0.02017   0.02846   0.03503   0.03954   0.04470
 Alpha virt. eigenvalues --    0.04787   0.04949   0.05692   0.06384   0.06507
 Alpha virt. eigenvalues --    0.06699   0.06731   0.08004   0.08037   0.08231

 Mulliken atomic charges:
              1
     1  C    0.110399
     2  C   -0.429032
     3  H    0.235966
     4  C   -0.390801
     5  H    0.204656
     6  C   -0.431727
     7  H    0.221980
     8  C   -1.278025
     9  H    0.113598
    10  C    1.693101
    11  C   -0.282456
    12  C    0.292716
    13  H   -0.120564
    14  C    0.185803
    15  H    0.224278
    16  C    1.023066
    17  C   -0.756554
    18  H    0.144867
    19  C   -0.323285
    20  H    0.231174
    21  C   -0.575480
    22  C   -0.269211
    23  H    0.184982
    24  C   -0.282115
    25  H    0.212820
    26  C   -0.388414
    27  H    0.164904
    28  H    0.153381
    29  H    0.180515
    30  C   -0.390179
    31  H    0.179465
    32  H    0.154344
    33  H    0.168609
    34  N    0.050998
    35  O   -0.289372
    36  H    0.365349
    37  O   -0.289756
 Sum of Mulliken atomic charges =   0.00000

 Dipole moment (field-independent basis, Debye):
    X=             -6.8683    Y=              3.5309    Z=             -0.2422  Tot=              7.7265
 Quadrupole moment (field-independent basis, Debye-Ang):
   XX=            -89.3882   YY=           -112.4488   ZZ=           -125.2182
   XY=              9.7537   XZ=              0.0826   YZ=              0.8121

 Normal termination of Gaussian 09 at Sat Oct 24 05:50:58 2015.
