 Gaussian 09, Revision C.01,
 Gaussian 09:  EM64L-G09RevC.01 23-Sep-2011

 ---------------------------
 #wb97xd 6-311++g** opt freq
 ---------------------------

 99/9=1/99;
 -----------------
 Geom Opt H bigbas
 -----------------
 Charge =  0 Multiplicity = 1

 SCF Done:  E(RwB97XD) =  -862.841444430     A.U. after   17 cycles
 SCF Done:  E(RwB97XD) =  -863.003959645     A.U. after   14 cycles
 SCF Done:  E(RwB97XD) =  -863.155375533     A.U. after   15 cycles
 SCF Done:  E(RwB97XD) =  -863.165624818     A.U. after   17 cycles
 SCF Done:  E(RwB97XD) =  -863.163456005     A.U. after   17 cycles
 SCF Done:  E(RwB97XD) =  -863.169263752     A.U. after   16 cycles
 SCF Done:  E(RwB97XD) =  -863.169968220     A.U. after   15 cycles
 SCF Done:  E(RwB97XD) =  -863.169923840     A.U. after   13 cycles
 SCF Done:  E(RwB97XD) =  -863.170116993     A.U. after   14 cycles
 SCF Done:  E(RwB97XD) =  -863.170147058     A.U. after   13 cycles
 SCF Done:  E(RwB97XD) =  -863.170174900     A.U. after   12 cycles
 SCF Done:  E(RwB97XD) =  -863.170176634     A.U. after   13 cycles
 SCF Done:  E(RwB97XD) =  -863.170178105     A.U. after   11 cycles
 SCF Done:  E(RwB97XD) =  -863.170178624     A.U. after   10 cycles
 SCF Done:  E(RwB97XD) =  -863.170179134     A.U. after   11 cycles
 SCF Done:  E(RwB97XD) =  -863.170179740     A.U. after   12 cycles
 SCF Done:  E(RwB97XD) =  -863.170180020     A.U. after   10 cycles
 SCF Done:  E(RwB97XD) =  -863.170180137     A.U. after   10 cycles
 SCF Done:  E(RwB97XD) =  -863.170180145     A.U. after   10 cycles
 Optimization completed.
    -- Stationary point found.
 Normal termination of Gaussian 09 at Sat Oct 17 01:03:32 2015.

 ----------------------------------------------------------------------
 #N Geom=AllCheck Guess=TCheck SCRF=Check GenChk RwB97XD/6-311++G(d,p)
 Freq
 ----------------------------------------------------------------------

 Structure from the checkpoint file:  H_opt.chk
 -----------------
 Geom Opt H bigbas
 -----------------
 Charge =  0 Multiplicity = 1

                         Standard orientation:
 ---------------------------------------------------------------------
 Center     Atomic      Atomic             Coordinates (Angstroms)
 Number     Number       Type             X           Y           Z
 ---------------------------------------------------------------------
      1          6           0        4.776544   -0.493715    0.081039
      2          6           0        5.918572    0.316862    0.088162
      3          1           0        6.883445   -0.165190    0.188103
      4          6           0        5.803115    1.685153   -0.037924
      5          1           0        6.698153    2.297937   -0.036061
      6          6           0        4.548389    2.285037   -0.174814
      7          1           0        4.460946    3.358768   -0.286093
      8          6           0        3.418858    1.493030   -0.169062
      9          1           0        2.453909    1.969169   -0.285397
     10          6           0        3.494238    0.096240   -0.035207
     11          6           0        2.295466   -0.773054   -0.017063
     12          6           0        0.950745   -0.178549    0.011442
     13          1           0        0.851958    0.894406    0.100656
     14          6           0       -0.134736   -0.968022   -0.051484
     15          1           0        0.051764   -2.036647   -0.137758
     16          6           0       -1.531529   -0.565839   -0.018719
     17          6           0       -1.955613    0.763459    0.110511
     18          1           0       -1.224053    1.559862    0.191657
     19          6           0       -3.291981    1.101585    0.138457
     20          1           0       -3.558888    2.144793    0.238759
     21          6           0       -4.295953    0.112020    0.041073
     22          6           0       -3.873875   -1.225334   -0.096939
     23          1           0       -4.598279   -2.023368   -0.184880
     24          6           0       -2.528738   -1.541661   -0.121984
     25          1           0       -2.239270   -2.582580   -0.228406
     26          6           0       -6.027510    1.833112    0.113348
     27          1           0       -5.633708    2.341471    0.999706
     28          1           0       -7.113875    1.892906    0.156027
     29          1           0       -5.690558    2.379801   -0.777002
     30          6           0       -6.630465   -0.581826   -0.121597
     31          1           0       -6.544038   -1.053225   -1.109235
     32          1           0       -7.619661   -0.133461   -0.044648
     33          1           0       -6.560838   -1.365021    0.640764
     34          7           0       -5.627426    0.441945    0.083047
     35          8           0        4.957272   -1.809886    0.188837
     36          1           0        4.065917   -2.223588    0.128747
     37          8           0        2.429714   -2.002695   -0.010301
 ---------------------------------------------------------------------

 SCF Done:  E(RwB97XD) =  -863.170180145     A.U. after    2 cycles

 The electronic state is 1-A.
 Alpha  occ. eigenvalues --  -19.25947 -19.23445 -14.47007 -10.38114 -10.35794
 Alpha  occ. eigenvalues --  -10.34667 -10.32939 -10.32892 -10.30937 -10.30146
 Alpha  occ. eigenvalues --  -10.30073 -10.30039 -10.29817 -10.29760 -10.29644
 Alpha  occ. eigenvalues --  -10.29380 -10.29147 -10.28649 -10.28487 -10.28318
 Alpha  occ. eigenvalues --   -1.17067  -1.13803  -1.07390  -0.97037  -0.96295
 Alpha  occ. eigenvalues --   -0.90843  -0.87393  -0.86708  -0.84954  -0.84331
 Alpha  occ. eigenvalues --   -0.83784  -0.78670  -0.74872  -0.72217  -0.71462
 Alpha  occ. eigenvalues --   -0.69911  -0.68018  -0.64750  -0.63153  -0.61648
 Alpha  occ. eigenvalues --   -0.60849  -0.58708  -0.57859  -0.57342  -0.55973
 Alpha  occ. eigenvalues --   -0.55198  -0.54403  -0.53047  -0.52288  -0.52258
 Alpha  occ. eigenvalues --   -0.51900  -0.51430  -0.51024  -0.49766  -0.48319
 Alpha  occ. eigenvalues --   -0.48089  -0.47468  -0.47165  -0.47050  -0.46013
 Alpha  occ. eigenvalues --   -0.45401  -0.42991  -0.42851  -0.42372  -0.41033
 Alpha  occ. eigenvalues --   -0.35092  -0.34492  -0.34443  -0.33894  -0.30090
 Alpha  occ. eigenvalues --   -0.27103
 Alpha virt. eigenvalues --   -0.02017   0.02846   0.03503   0.03954   0.04470
 Alpha virt. eigenvalues --    0.04787   0.04949   0.05692   0.06384   0.06507
 Alpha virt. eigenvalues --    0.06698   0.06730   0.08003   0.08037   0.08231

 Mulliken atomic charges:
              1
     1  C    0.110461
     2  C   -0.429031
     3  H    0.235972
     4  C   -0.390942
     5  H    0.204655
     6  C   -0.431470
     7  H    0.221979
     8  C   -1.278289
     9  H    0.113583
    10  C    1.693088
    11  C   -0.282384
    12  C    0.292587
    13  H   -0.120477
    14  C    0.185899
    15  H    0.224259
    16  C    1.023371
    17  C   -0.756611
    18  H    0.144834
    19  C   -0.323288
    20  H    0.231173
    21  C   -0.575516
    22  C   -0.269229
    23  H    0.185007
    24  C   -0.282238
    25  H    0.212813
    26  C   -0.388525
    27  H    0.164887
    28  H    0.153381
    29  H    0.180544
    30  C   -0.390212
    31  H    0.179406
    32  H    0.154337
    33  H    0.168646
    34  N    0.051089
    35  O   -0.289342
    36  H    0.365329
    37  O   -0.289746
 Sum of Mulliken atomic charges =   0.00000

 Dipole moment (field-independent basis, Debye):
    X=             -6.8669    Y=              3.5307    Z=             -0.2428  Tot=              7.7252
 Quadrupole moment (field-independent basis, Debye-Ang):
   XX=            -89.3925   YY=           -112.4480   ZZ=           -125.2181
   XY=              9.7533   XZ=              0.0875   YZ=              0.8126

  Exact polarizability: 431.454   5.021 217.937   2.706   0.248 118.934
 Approx polarizability: 345.041   0.672 265.737   2.912   0.421 145.561

                     1                      2                      3
                     A                      A                      A
 Frequencies --    22.0955                29.6070                45.2825
 Red. masses --     3.6208                 5.0651                 4.8971
 Frc consts  --     0.0010                 0.0026                 0.0059
 IR Inten    --     0.2203                 0.2798                 0.3238

                     4                      5                      6
                     A                      A                      A
 Frequencies --    52.9916                72.8561                83.7132
 Red. masses --     4.8218                 2.5890                 2.6053
 Frc consts  --     0.0080                 0.0081                 0.0108
 IR Inten    --     0.9407                 0.7877                 5.5871

                     7                      8                      9
                     A                      A                      A
 Frequencies --    95.4184               141.8768               162.1751
 Red. masses --     3.2753                 4.9234                 1.9984
 Frc consts  --     0.0176                 0.0584                 0.0310
 IR Inten    --     0.7709                 0.2339                 0.2806

                    10                     11                     12
                     A                      A                      A
 Frequencies --   167.8356               179.9092               226.0001
 Red. masses --     4.9034                 5.6588                 1.1586
 Frc consts  --     0.0814                 0.1079                 0.0349
 IR Inten    --     0.1144                 0.3605                 0.1921

                    13                     14                     15
                     A                      A                      A
 Frequencies --   254.3145               259.9133               273.3022
 Red. masses --     3.1672                 2.2133                 3.3987
 Frc consts  --     0.1207                 0.0881                 0.1496
 IR Inten    --     0.1477                 1.5434                 1.7199

                    16                     17                     18
                     A                      A                      A
 Frequencies --   348.5377               381.9128               390.6868
 Red. masses --     6.0422                 3.6183                 4.1009
 Frc consts  --     0.4325                 0.3109                 0.3688
 IR Inten    --     8.3973                 2.5836                10.2598

                    19                     20                     21
                     A                      A                      A
 Frequencies --   431.9490               439.0087               445.5934
 Red. masses --     2.9689                 4.4776                 4.8753
 Frc consts  --     0.3264                 0.5084                 0.5703
 IR Inten    --     0.1819                 3.9422                 0.6359

                    22                     23                     24
                     A                      A                      A
 Frequencies --   472.4383               493.2285               525.7199
 Red. masses --     4.4461                 3.8640                 2.4645
 Frc consts  --     0.5847                 0.5538                 0.4013
 IR Inten    --     9.8550                 0.4819                22.2865

                    25                     26                     27
                     A                      A                      A
 Frequencies --   536.6499               543.4496               558.7759
 Red. masses --     3.7809                 3.1955                 4.0893
 Frc consts  --     0.6415                 0.5560                 0.7523
 IR Inten    --     4.8583                 3.5894                32.3546

                    28                     29                     30
                     A                      A                      A
 Frequencies --   575.7859               657.7407               677.9529
 Red. masses --     6.6772                 7.0091                 6.2555
 Frc consts  --     1.3043                 1.7866                 1.6940
 IR Inten    --    12.6188                 0.1861                62.4099

                    31                     32                     33
                     A                      A                      A
 Frequencies --   693.2379               734.5342               742.3146
 Red. masses --     3.7559                 4.8583                 3.1810
 Frc consts  --     1.0635                 1.5444                 1.0327
 IR Inten    --     0.7269                13.5737                 5.2480

                    34                     35                     36
                     A                      A                      A
 Frequencies --   772.2836               784.2522               816.3539
 Red. masses --     2.4670                 1.5368                 6.3905
 Frc consts  --     0.8669                 0.5569                 2.5092
 IR Inten    --    10.0768                92.3448                11.4594

                    37                     38                     39
                     A                      A                      A
 Frequencies --   822.7596               833.2731               842.4800
 Red. masses --     1.2654                 1.2139                 1.7488
 Frc consts  --     0.5047                 0.4966                 0.7313
 IR Inten    --     0.3691                12.6615               117.7887

                    40                     41                     42
                     A                      A                      A
 Frequencies --   865.1985               881.2096               885.7127
 Red. masses --     5.8314                 1.9545                 1.4958
 Frc consts  --     2.5719                 0.8942                 0.6914
 IR Inten    --     8.8339                10.8592                 3.0837

                    43                     44                     45
                     A                      A                      A
 Frequencies --   919.0968               966.1268               978.2700
 Red. masses --     4.6014                 1.3350                 1.3588
 Frc consts  --     2.2902                 0.7342                 0.7661
 IR Inten    --     4.5727                 0.5388                 0.4638

                    46                     47                     48
                     A                      A                      A
 Frequencies --   983.7283               986.2653              1013.4255
 Red. masses --     1.3413                 2.9633                 1.3018
 Frc consts  --     0.7647                 1.6983                 0.7878
 IR Inten    --     0.0665                19.1980                 0.6055

                    49                     50                     51
                     A                      A                      A
 Frequencies --  1025.8152              1033.1837              1050.6688
 Red. masses --     2.6928                 1.2381                 4.0276
 Frc consts  --     1.6695                 0.7787                 2.6195
 IR Inten    --    14.2189                27.5087               203.5488

                    52                     53                     54
                     A                      A                      A
 Frequencies --  1072.9955              1094.6320              1145.3123
 Red. masses --     2.1854                 1.4428                 1.2818
 Frc consts  --     1.4825                 1.0185                 0.9906
 IR Inten    --    16.4779                22.3367                15.2950

                    55                     56                     57
                     A                      A                      A
 Frequencies --  1153.3304              1160.2140              1162.6933
 Red. masses --     1.2828                 1.4564                 1.4108
 Frc consts  --     1.0053                 1.1550                 1.1237
 IR Inten    --    19.5099                 6.4787                34.5714

                    58                     59                     60
                     A                      A                      A
 Frequencies --  1189.7417              1205.8574              1219.5516
 Red. masses --     1.3490                 1.7082                 1.3024
 Frc consts  --     1.1250                 1.4634                 1.1412
 IR Inten    --   377.2605                38.1760               152.6515

                    61                     62                     63
                     A                      A                      A
 Frequencies --  1229.2616              1264.2313              1287.8222
 Red. masses --     1.8060                 1.4580                 2.1215
 Frc consts  --     1.6079                 1.3730                 2.0730
 IR Inten    --   352.6675                13.3613                58.8418

                    64                     65                     66
                     A                      A                      A
 Frequencies --  1293.4830              1319.2682              1353.4381
 Red. masses --     2.4657                 2.9729                 2.0573
 Frc consts  --     2.4306                 3.0486                 2.2203
 IR Inten    --    74.3317                75.7866                46.8508

                    67                     68                     69
                     A                      A                      A
 Frequencies --  1361.8968              1371.4800              1380.9706
 Red. masses --     2.4714                 1.5130                 3.3531
 Frc consts  --     2.7008                 1.6767                 3.7676
 IR Inten    --    25.0958               197.6922                24.9750

                    70                     71                     72
                     A                      A                      A
 Frequencies --  1395.5523              1416.3752              1439.9473
 Red. masses --     3.0377                 3.2470                 1.6698
 Frc consts  --     3.4856                 3.8379                 2.0399
 IR Inten    --   230.3254               181.1978               128.0977

                    73                     74                     75
                     A                      A                      A
 Frequencies --  1454.9879              1483.7262              1491.2543
 Red. masses --     1.2276                 2.2820                 1.0482
 Frc consts  --     1.5312                 2.9599                 1.3734
 IR Inten    --    18.3733               130.4949                 2.7838

                    76                     77                     78
                     A                      A                      A
 Frequencies --  1498.1635              1498.5281              1500.2656
 Red. masses --     1.4193                 2.4078                 1.0439
 Frc consts  --     1.8769                 3.1857                 1.3843
 IR Inten    --    12.4255                31.1300                18.3105

                    79                     80                     81
                     A                      A                      A
 Frequencies --  1528.8150              1542.9831              1546.2295
 Red. masses --     1.1371                 1.1491                 1.9842
 Frc consts  --     1.5658                 1.6119                 2.7950
 IR Inten    --    29.4875               187.6822               111.8785

                    82                     83                     84
                     A                      A                      A
 Frequencies --  1582.3474              1620.0100              1644.2799
 Red. masses --     2.8772                 5.8431                 4.4897
 Frc consts  --     4.2444                 9.0350                 7.1518
 IR Inten    --   580.5483                79.8368               427.1051

                    85                     86                     87
                     A                      A                      A
 Frequencies --  1649.2801              1688.3369              1697.1157
 Red. masses --     5.1712                 6.0408                 5.7308
 Frc consts  --     8.2877                10.1453                 9.7249
 IR Inten    --   853.6062               127.8169                42.8081

                    88                     89                     90
                     A                      A                      A
 Frequencies --  1730.0150              3009.1983              3016.3051
 Red. masses --     6.3450                 1.0422                 1.0456
 Frc consts  --    11.1887                 5.5601                 5.6048
 IR Inten    --   351.1232                85.1477                98.5020

                    91                     92                     93
                     A                      A                      A
 Frequencies --  3070.9600              3075.8456              3150.9689
 Red. masses --     1.0991                 1.0986                 1.0982
 Frc consts  --     6.1074                 6.1240                 6.4245
 IR Inten    --    29.7934                40.5045                 2.3998

                    94                     95                     96
                     A                      A                      A
 Frequencies --  3161.9872              3173.3992              3188.6548
 Red. masses --     1.0959                 1.0890                 1.0877
 Frc consts  --     6.4555                 6.4615                 6.5162
 IR Inten    --    37.7669                 0.5974                 6.4297

                    97                     98                     99
                     A                      A                      A
 Frequencies --  3194.0257              3198.5839              3209.1541
 Red. masses --     1.0900                 1.0894                 1.0893
 Frc consts  --     6.5519                 6.5671                 6.6098
 IR Inten    --     7.4174                 6.0565                 8.6174

                   100                    101                    102
                     A                      A                      A
 Frequencies --  3218.5721              3224.8878              3232.0503
 Red. masses --     1.0942                 1.0967                 1.0923
 Frc consts  --     6.6785                 6.7199                 6.7227
 IR Inten    --     8.5662                 6.2550                12.0363

                   103                    104                    105
                     A                      A                      A
 Frequencies --  3241.6087              3243.1760              3382.4435
 Red. masses --     1.0913                 1.0890                 1.0686
 Frc consts  --     6.7566                 6.7488                 7.2035
 IR Inten    --     2.9007                22.7254               613.7710

 - Thermochemistry -
 -------------------
 Temperature   298.150 Kelvin.  Pressure   1.00000 Atm.
 Atom     1 has atomic number  6 and mass  12.00000

 Molecular mass:   267.12593 amu.
 Principal axes and moments of inertia in atomic units:
                           1         2         3
     Eigenvalues --  1624.23146********************
           X            1.00000   0.00166   0.00023
           Y           -0.00166   0.99999   0.00291
           Z           -0.00023  -0.00291   1.00000
 This molecule is an asymmetric top.
 Rotational symmetry number  1.
 Warning -- assumption of classical behavior for rotation
           may cause significant error
 Rotational temperatures (Kelvin)      0.05333     0.00513     0.00469
 Rotational constants (GHZ):           1.11114     0.10693     0.09778
 Zero-point vibrational energy     800559.7 (Joules/Mol)
                                  191.33835 (Kcal/Mol)
 Warning -- explicit consideration of  28 degrees of freedom as
           vibrations may cause significant error
 Vibrational temperatures:     31.79    42.60    65.15    76.24   104.82
          (Kelvin)            120.44   137.29   204.13   233.33   241.48
                              258.85   325.16   365.90   373.96   393.22
                              501.47   549.49   562.11   621.48   631.63
                              641.11   679.73   709.64   756.39   772.12
                              781.90   803.95   828.43   946.34   975.42
                              997.41  1056.83  1068.02  1111.14  1128.36
                             1174.55  1183.77  1198.89  1212.14  1244.83
                             1267.86  1274.34  1322.37  1390.04  1407.51
                             1415.36  1419.01  1458.09  1475.92  1486.52
                             1511.68  1543.80  1574.93  1647.85  1659.38
                             1669.29  1672.85  1711.77  1734.96  1754.66
                             1768.63  1818.94  1852.89  1861.03  1898.13
                             1947.29  1959.46  1973.25  1986.91  2007.89
                             2037.85  2071.76  2093.40  2134.75  2145.58
                             2155.52  2156.04  2158.54  2199.62  2220.01
                             2224.68  2276.64  2330.83  2365.75  2372.94
                             2429.14  2441.77  2489.10  4329.56  4339.78
                             4418.42  4425.45  4533.54  4549.39  4565.81
                             4587.76  4595.48  4602.04  4617.25  4630.80
                             4639.89  4650.19  4663.95  4666.20  4866.58

 Zero-point correction=                           0.304917 (Hartree/Particle)
 Thermal correction to Energy=                    0.323063
 Thermal correction to Enthalpy=                  0.324007
 Thermal correction to Gibbs Free Energy=         0.256357
 Sum of electronic and zero-point Energies=           -862.865263
 Sum of electronic and thermal Energies=              -862.847117
 Sum of electronic and thermal Enthalpies=            -862.846173
 Sum of electronic and thermal Free Energies=         -862.913824

                     E (Thermal)             CV                S
                      KCal/Mol        Cal/Mol-Kelvin    Cal/Mol-Kelvin
 Total                  202.725             69.038            142.383
 Electronic               0.000              0.000              0.000
 Translational            0.889              2.981             42.647
 Rotational               0.889              2.981             34.580
 Vibrational            200.948             63.076             65.156
 Vibration     1          0.593              1.985              6.436
 Vibration     2          0.593              1.984              5.856
 Vibration     3          0.595              1.979              5.013
 Vibration     4          0.596              1.976              4.703
 Vibration     5          0.599              1.967              4.075
 Vibration     6          0.601              1.960              3.802
 Vibration     7          0.603              1.952              3.546
 Vibration     8          0.615              1.911              2.778
 Vibration     9          0.622              1.889              2.524
 Vibration    10          0.625              1.882              2.460
 Vibration    11          0.629              1.867              2.329
 Vibration    12          0.650              1.801              1.910
 Vibration    13          0.665              1.756              1.700
 Vibration    14          0.668              1.746              1.662
 Vibration    15          0.676              1.723              1.575
 Vibration    16          0.726              1.578              1.173
 Vibration    17          0.751              1.509              1.032
 Vibration    18          0.758              1.490              0.998
 Vibration    19          0.793              1.401              0.852
 Vibration    20          0.799              1.385              0.830
 Vibration    21          0.805              1.371              0.809
 Vibration    22          0.829              1.311              0.731
 Vibration    23          0.849              1.265              0.675
 Vibration    24          0.881              1.193              0.597
 Vibration    25          0.892              1.169              0.573
 Vibration    26          0.899              1.154              0.558
 Vibration    27          0.914              1.121              0.526
 Vibration    28          0.932              1.084              0.493

 Optimization completed.
    -- Stationary point found.
 Normal termination of Gaussian 09 at Sat Oct 17 06:12:01 2015.
