 Gaussian 09, Revision C.01,
 Gaussian 09:  EM64L-G09RevC.01 23-Sep-2011

 -------------------------------------------
 #wb97xd 6-311++g** opt td(nstates=1,root=1)
 -------------------------------------------

 99//99;
 --------------------
 Geom Opt H bigbas S1
 --------------------
 Charge =  0 Multiplicity = 1

 SCF Done:  E(RwB97XD) =  -862.841444430     A.U. after   17 cycles
 SCF Done:  E(RwB97XD) =  -863.002762963     A.U. after   15 cycles
 SCF Done:  E(RwB97XD) =  -863.152100834     A.U. after   16 cycles
 SCF Done:  E(RwB97XD) =  -863.156428208     A.U. after   17 cycles
 SCF Done:  E(RwB97XD) =  -863.153193034     A.U. after   17 cycles
 SCF Done:  E(RwB97XD) =  -863.161583016     A.U. after   16 cycles
 SCF Done:  E(RwB97XD) =  -863.163755423     A.U. after   15 cycles
 SCF Done:  E(RwB97XD) =  -863.163662275     A.U. after   14 cycles
 SCF Done:  E(RwB97XD) =  -863.164037871     A.U. after   14 cycles
 SCF Done:  E(RwB97XD) =  -863.163791597     A.U. after   15 cycles
 SCF Done:  E(RwB97XD) =  -863.163572554     A.U. after   13 cycles
 SCF Done:  E(RwB97XD) =  -863.163603016     A.U. after   12 cycles
 SCF Done:  E(RwB97XD) =  -863.163619739     A.U. after   12 cycles
 SCF Done:  E(RwB97XD) =  -863.163623676     A.U. after   12 cycles
 SCF Done:  E(RwB97XD) =  -863.163617914     A.U. after   12 cycles
 SCF Done:  E(RwB97XD) =  -863.163610710     A.U. after   11 cycles
 SCF Done:  E(RwB97XD) =  -863.163604673     A.U. after   11 cycles
 SCF Done:  E(RwB97XD) =  -863.163607716     A.U. after   11 cycles
 SCF Done:  E(RwB97XD) =  -863.163611785     A.U. after   11 cycles
 SCF Done:  E(RwB97XD) =  -863.163616093     A.U. after   10 cycles

 Excitation energies and oscillator strengths:

 Excited State   1:      Singlet-A      3.2817 eV  377.80 nm  f=1.1974  <S**2>=0.000
      70 -> 74         0.10561
      71 -> 72        -0.67173
 This state for optimization and/or second-order correction.
 Total Energy, E(TD-HF/TD-KS) =  -863.043014827
 Copying the excited state density for this state as the 1-particle RhoCI density.

 Optimization completed.
    -- Stationary point found.

                         Standard orientation:
 ---------------------------------------------------------------------
 Center     Atomic      Atomic             Coordinates (Angstroms)
 Number     Number       Type             X           Y           Z
 ---------------------------------------------------------------------
      1          6           0        4.746467   -0.468726    0.092663
      2          6           0        5.888430    0.342140    0.110204
      3          1           0        6.852149   -0.140051    0.222627
      4          6           0        5.772120    1.711870   -0.016257
      5          1           0        6.662798    2.330656   -0.003725
      6          6           0        4.511362    2.303385   -0.167549
      7          1           0        4.423039    3.377674   -0.279905
      8          6           0        3.378965    1.513372   -0.182299
      9          1           0        2.416486    1.991955   -0.315944
     10          6           0        3.448455    0.114725   -0.045836
     11          6           0        2.280647   -0.778044   -0.041570
     12          6           0        0.948755   -0.238905   -0.041834
     13          1           0        0.813385    0.834248   -0.010173
     14          6           0       -0.158532   -1.081001   -0.060775
     15          1           0        0.042257   -2.146343   -0.114130
     16          6           0       -1.507939   -0.650205   -0.027483
     17          6           0       -1.902497    0.719027    0.094475
     18          1           0       -1.145457    1.488986    0.177753
     19          6           0       -3.222584    1.091223    0.116549
     20          1           0       -3.462737    2.141636    0.211424
     21          6           0       -4.260558    0.129080    0.022638
     22          6           0       -3.880743   -1.241655   -0.096613
     23          1           0       -4.636698   -2.011299   -0.172465
     24          6           0       -2.564011   -1.604032   -0.119002
     25          1           0       -2.303517   -2.652836   -0.213423
     26          6           0       -5.940146    1.893792    0.146113
     27          1           0       -5.548484    2.343008    1.065349
     28          1           0       -7.024426    1.981750    0.162325
     29          1           0       -5.562174    2.467253   -0.708499
     30          6           0       -6.619507   -0.503504   -0.078666
     31          1           0       -6.559981   -1.028173   -1.039214
     32          1           0       -7.589094   -0.013762   -0.018733
     33          1           0       -6.564266   -1.243927    0.726364
     34          7           0       -5.573847    0.494342    0.047537
     35          8           0        4.897211   -1.779635    0.207160
     36          1           0        3.966869   -2.165862    0.141847
     37          8           0        2.443374   -2.036686   -0.006258
 ---------------------------------------------------------------------

 The electronic state is 1-A.
 Alpha  occ. eigenvalues --  -19.24860 -19.22736 -14.47876 -10.37552 -10.35552
 Alpha  occ. eigenvalues --  -10.35370 -10.33485 -10.33472 -10.31505 -10.30841
 Alpha  occ. eigenvalues --  -10.30603 -10.30070 -10.29872 -10.29845 -10.29623
 Alpha  occ. eigenvalues --  -10.29612 -10.29432 -10.28595 -10.28182 -10.27934
 Alpha  occ. eigenvalues --   -1.16168  -1.11873  -1.08170  -0.97091  -0.95746
 Alpha  occ. eigenvalues --   -0.90803  -0.87429  -0.87217  -0.84692  -0.84356
 Alpha  occ. eigenvalues --   -0.83679  -0.79388  -0.74711  -0.72371  -0.71474
 Alpha  occ. eigenvalues --   -0.69434  -0.68111  -0.64667  -0.63512  -0.61388
 Alpha  occ. eigenvalues --   -0.60477  -0.58881  -0.57979  -0.57802  -0.55814
 Alpha  occ. eigenvalues --   -0.55413  -0.54134  -0.52918  -0.52711  -0.51754
 Alpha  occ. eigenvalues --   -0.51671  -0.51486  -0.51033  -0.50152  -0.48665
 Alpha  occ. eigenvalues --   -0.48245  -0.47165  -0.46857  -0.46530  -0.46243
 Alpha  occ. eigenvalues --   -0.45647  -0.42620  -0.42357  -0.42064  -0.41224
 Alpha  occ. eigenvalues --   -0.35161  -0.34808  -0.33982  -0.33580  -0.29505
 Alpha  occ. eigenvalues --   -0.26746
 Alpha virt. eigenvalues --   -0.02878   0.02587   0.03267   0.03853   0.04350
 Alpha virt. eigenvalues --    0.04649   0.04924   0.05697   0.06237   0.06351
 Alpha virt. eigenvalues --    0.06809   0.07128   0.07828   0.08023   0.08110

 Mulliken atomic charges:
              1
     1  C   -0.047718
     2  C   -0.428621
     3  H    0.234049
     4  C   -0.428430
     5  H    0.205701
     6  C   -0.381026
     7  H    0.217148
     8  C   -1.160235
     9  H    0.133008
    10  C    1.614004
    11  C   -0.134686
    12  C    0.290500
    13  H   -0.188355
    14  C    0.111342
    15  H    0.248893
    16  C    0.820543
    17  C   -0.604091
    18  H    0.173548
    19  C   -0.274877
    20  H    0.226568
    21  C   -0.534566
    22  C   -0.279005
    23  H    0.189092
    24  C   -0.280701
    25  H    0.213777
    26  C   -0.382341
    27  H    0.172412
    28  H    0.155588
    29  H    0.179602
    30  C   -0.380724
    31  H    0.180285
    32  H    0.155221
    33  H    0.174607
    34  N    0.054367
    35  O   -0.306299
    36  H    0.391783
    37  O   -0.330362
 Sum of Mulliken atomic charges =   0.00000

 Dipole moment (field-independent basis, Debye):
    X=             -8.4545    Y=              3.8524    Z=             -0.1764  Tot=              9.2925
 Quadrupole moment (field-independent basis, Debye-Ang):
   XX=            -87.7230   YY=           -112.9749   ZZ=           -125.3514
   XY=             10.2145   XZ=             -0.5212   YZ=              0.8078

 Normal termination of Gaussian 09 at Wed Oct 28 07:32:13 2015.
