 Gaussian 09, Revision D.01,
 Gaussian 09:  ES64L-G09RevD.01 24-Apr-2013

 ----------------------------------------------
 #p wb97xd 6-311++G** opt td=(nstates=1,root=1)
 ----------------------------------------------

 ----------
 rotated E*
 ----------
 Symbolic Z-matrix:
 Charge =  0 Multiplicity = 1

 SCF Done:  E(RwB97XD) =  -902.458970485     A.U. after   18 cycles
 SCF Done:  E(RwB97XD) =  -902.468387188     A.U. after   18 cycles
 SCF Done:  E(RwB97XD) =  -902.468720792     A.U. after   18 cycles
 SCF Done:  E(RwB97XD) =  -902.466418308     A.U. after   15 cycles
 SCF Done:  E(RwB97XD) =  -902.466533485     A.U. after   15 cycles
 SCF Done:  E(RwB97XD) =  -902.465449145     A.U. after   15 cycles
 SCF Done:  E(RwB97XD) =  -902.463875889     A.U. after   15 cycles
 SCF Done:  E(RwB97XD) =  -902.462337589     A.U. after   15 cycles
 SCF Done:  E(RwB97XD) =  -902.460741283     A.U. after   17 cycles
 SCF Done:  E(RwB97XD) =  -902.460353981     A.U. after   14 cycles
 SCF Done:  E(RwB97XD) =  -902.458401169     A.U. after   15 cycles
 SCF Done:  E(RwB97XD) =  -902.457749639     A.U. after   15 cycles
 SCF Done:  E(RwB97XD) =  -902.457671385     A.U. after   12 cycles
 SCF Done:  E(RwB97XD) =  -902.457741630     A.U. after   13 cycles
 SCF Done:  E(RwB97XD) =  -902.457609672     A.U. after   13 cycles
 SCF Done:  E(RwB97XD) =  -902.457674421     A.U. after   11 cycles
 SCF Done:  E(RwB97XD) =  -902.457694481     A.U. after   11 cycles
 SCF Done:  E(RwB97XD) =  -902.457680071     A.U. after   11 cycles
 SCF Done:  E(RwB97XD) =  -902.457672298     A.U. after   10 cycles
 SCF Done:  E(RwB97XD) =  -902.457666470     A.U. after   10 cycles

 Excitation energies and oscillator strengths:

 Excited State   1:      Singlet-A      2.8252 eV  438.85 nm  f=0.0739  <S**2>=0.000
      72 -> 76         0.32743
      73 -> 76         0.27807
      74 -> 76        -0.27630
      75 -> 76         0.43548
 This state for optimization and/or second-order correction.
 Total Energy, E(TD-HF/TD-KS) =  -902.353842453
 Copying the excited state density for this state as the 1-particle RhoCI density.

 Optimization completed.
    -- Stationary point found.

                         Standard orientation:
 ---------------------------------------------------------------------
 Center     Atomic      Atomic             Coordinates (Angstroms)
 Number     Number       Type             X           Y           Z
 ---------------------------------------------------------------------
      1          1           0       -5.126564   -1.842101   -0.142773
      2          1           0       -7.031984   -0.528311   -1.005237
      3          6           0       -4.336713   -1.105546   -0.083175
      4          6           0       -7.026071   -0.225692    0.052560
      5          6           0       -4.636320    0.246688    0.164277
      6          6           0       -3.030983   -1.526290   -0.252613
      7          7           0       -5.938306    0.675106    0.369306
      8          1           0       -6.978293   -1.129126    0.666842
      9          1           0       -7.972899    0.266195    0.273536
     10          6           0       -3.551155    1.144246    0.201972
     11          6           0       -1.941977   -0.642746   -0.196870
     12          1           0       -2.843241   -2.579734   -0.436507
     13          6           0       -6.218490    2.094904    0.347935
     14          6           0       -2.251297    0.708073    0.029847
     15          1           0       -3.720290    2.200139    0.365294
     16          6           0       -0.599608   -1.147320   -0.375421
     17          1           0       -5.672685    2.613570    1.140993
     18          1           0       -5.960513    2.564906   -0.612789
     19          1           0       -7.281132    2.251472    0.531271
     20          1           0       -1.458609    1.447375    0.063954
     21          1           0       -0.514044   -2.202409   -0.616782
     22          6           0        0.568627   -0.427581   -0.242618
     23          6           0        1.830133   -0.986557   -0.401488
     24          1           0        0.561081    0.627997    0.008451
     25          6           0        3.120352   -0.262267   -0.307321
     26          8           0        2.106697   -2.216111   -0.703922
     27          6           0        4.134153   -0.763807    0.546315
     28          6           0        3.369831    0.911818   -1.037535
     29          6           0        5.289407   -0.007278    0.763351
     30          8           0        4.018013   -1.919239    1.205365
     31          6           0        4.514874    1.641467   -0.814231
     32          1           0        2.620662    1.255568   -1.740615
     33          1           0        6.030860   -0.398004    1.450569
     34          6           0        5.491000    1.187805    0.097703
     35          1           0        3.290320   -2.429336    0.814378
     36          1           0        4.670481    2.577192   -1.340243
     37          6           0        6.738092    1.996597    0.318609
     38          1           0        7.245816    2.191259   -0.630069
     39          1           0        6.492710    2.966100    0.762227
     40          1           0        7.435654    1.485226    0.983035
 ---------------------------------------------------------------------

 The electronic state is 1-A.
 Alpha  occ. eigenvalues --  -19.25804 -19.21610 -14.47735 -10.36886 -10.35615
 Alpha  occ. eigenvalues --  -10.34464 -10.33301 -10.33274 -10.33080 -10.31178
 Alpha  occ. eigenvalues --  -10.31143 -10.30767 -10.30280 -10.30091 -10.29379
 Alpha  occ. eigenvalues --  -10.29281 -10.28590 -10.28465 -10.27373 -10.27111
 Alpha  occ. eigenvalues --  -10.27053  -1.16055  -1.10028  -1.07922  -0.97999
 Alpha  occ. eigenvalues --   -0.95268  -0.91740  -0.87888  -0.87438  -0.85986
 Alpha  occ. eigenvalues --   -0.84226  -0.83457  -0.80562  -0.78376  -0.74012
 Alpha  occ. eigenvalues --   -0.72424  -0.70238  -0.69459  -0.68490  -0.64756
 Alpha  occ. eigenvalues --   -0.63505  -0.61303  -0.59378  -0.58824  -0.57894
 Alpha  occ. eigenvalues --   -0.57501  -0.56052  -0.55547  -0.54252  -0.53019
 Alpha  occ. eigenvalues --   -0.52609  -0.51678  -0.51283  -0.51005  -0.50703
 Alpha  occ. eigenvalues --   -0.49727  -0.49266  -0.48770  -0.48488  -0.48195
 Alpha  occ. eigenvalues --   -0.46978  -0.46404  -0.45804  -0.44795  -0.43700
 Alpha  occ. eigenvalues --   -0.43193  -0.41633  -0.41227  -0.40448  -0.35283
 Alpha  occ. eigenvalues --   -0.35146  -0.33927  -0.31108  -0.28448  -0.27869
 Alpha virt. eigenvalues --   -0.03490   0.02629   0.03741   0.03973   0.04346
 Alpha virt. eigenvalues --    0.04943   0.05179   0.05700   0.06000   0.06193
 Alpha virt. eigenvalues --    0.06751   0.07151   0.07388   0.07710   0.07880

 Mulliken charges:
               1
     1  H    0.191477
     2  H    0.189564
     3  C   -0.175820
     4  C   -0.421738
     5  C   -0.698850
     6  C   -0.299856
     7  N    0.087843
     8  H    0.163724
     9  H    0.151514
    10  C   -0.402673
    11  C    1.169025
    12  H    0.211611
    13  C   -0.423422
    14  C   -0.910701
    15  H    0.232728
    16  C    0.229719
    17  H    0.161801
    18  H    0.187283
    19  H    0.156797
    20  H    0.108124
    21  H    0.231541
    22  C   -0.215177
    23  C   -0.181793
    24  H    0.140762
    25  C    1.318950
    26  O   -0.325085
    27  C   -0.724084
    28  C   -0.319264
    29  C   -0.611123
    30  O   -0.206455
    31  C   -0.396802
    32  H    0.200504
    33  H    0.204039
    34  C    0.556707
    35  H    0.307914
    36  H    0.203906
    37  C   -0.612940
    38  H    0.170528
    39  H    0.176702
    40  H    0.173018
 Sum of Mulliken charges =   0.00000

 Dipole moment (field-independent basis, Debye):
    X=             -8.3081    Y=              3.9461    Z=              0.0955  Tot=              9.1981
 Quadrupole moment (field-independent basis, Debye-Ang):
   XX=            -89.6335   YY=           -121.4655   ZZ=           -131.4507
   XY=              8.8087   XZ=              0.7826   YZ=             -1.4196

 Normal termination of Gaussian 09 at Fri Jul 21 22:23:04 2017.
