 Gaussian 09, Revision C.01,
 Gaussian 09:  EM64L-G09RevC.01 23-Sep-2011

 --------------------------------------------
 #wb97xd 6-311++g** opt scf(maxcycle=999,xqc)
 --------------------------------------------

 99/9=1/99;
 -----
 title
 -----
 Charge =  0 Multiplicity = 1

 SCF Done:  E(RwB97XD) =  -902.135331569     A.U. after   16 cycles
 SCF Done:  E(RwB97XD) =  -902.303298182     A.U. after   14 cycles
 SCF Done:  E(RwB97XD) =  -902.466903655     A.U. after   14 cycles
 SCF Done:  E(RwB97XD) =  -902.482294541     A.U. after   16 cycles
 SCF Done:  E(RwB97XD) =  -902.478647878     A.U. after   17 cycles
 SCF Done:  E(RwB97XD) =  -902.486022639     A.U. after   16 cycles
 SCF Done:  E(RwB97XD) =  -902.486660213     A.U. after   13 cycles
 SCF Done:  E(RwB97XD) =  -902.486587559     A.U. after   14 cycles
 SCF Done:  E(RwB97XD) =  -902.486878612     A.U. after   13 cycles
 SCF Done:  E(RwB97XD) =  -902.486892298     A.U. after   11 cycles
 SCF Done:  E(RwB97XD) =  -902.487084884     A.U. after   16 cycles
 SCF Done:  E(RwB97XD) =  -902.487171060     A.U. after   15 cycles
 SCF Done:  E(RwB97XD) =  -902.487205240     A.U. after   13 cycles
 SCF Done:  E(RwB97XD) =  -902.487181461     A.U. after   15 cycles
 SCF Done:  E(RwB97XD) =  -902.487214505     A.U. after   14 cycles
 SCF Done:  E(RwB97XD) =  -902.487215101     A.U. after   10 cycles
 SCF Done:  E(RwB97XD) =  -902.487215963     A.U. after   11 cycles
 SCF Done:  E(RwB97XD) =  -902.487216123     A.U. after   10 cycles
 SCF Done:  E(RwB97XD) =  -902.487216216     A.U. after    9 cycles
 SCF Done:  E(RwB97XD) =  -902.487216242     A.U. after    8 cycles
 Optimization completed.
    -- Stationary point found.

                         Standard orientation:
 ---------------------------------------------------------------------
 Center     Atomic      Atomic             Coordinates (Angstroms)
 Number     Number       Type             X           Y           Z
 ---------------------------------------------------------------------
      1          1           0        5.093909   -1.893941    0.165461
      2          1           0        6.981827   -0.814890    1.114144
      3          6           0        4.328507   -1.134488    0.084585
      4          6           0        7.045085   -0.339697    0.126389
      5          6           0        4.676768    0.224797   -0.042018
      6          6           0        3.002383   -1.524088    0.107056
      7          7           0        5.988843    0.628088   -0.082240
      8          1           0        7.019529   -1.125580   -0.635631
      9          1           0        8.009310    0.160403    0.051056
     10          6           0        3.620187    1.158686   -0.129266
     11          6           0        1.953310   -0.603663    0.012730
     12          1           0        2.770597   -2.580141    0.205013
     13          6           0        6.311001    2.039593   -0.088544
     14          6           0        2.303922    0.747837   -0.104440
     15          1           0        3.830160    2.215736   -0.219708
     16          6           0        0.580439   -1.083657    0.041547
     17          1           0        5.887018    2.540097   -0.965276
     18          1           0        5.946544    2.551771    0.811608
     19          1           0        7.392252    2.160159   -0.133151
     20          1           0        1.530379    1.504371   -0.177487
     21          1           0        0.453310   -2.161353    0.122385
     22          6           0       -0.546844   -0.356154   -0.019655
     23          6           0       -1.858705   -1.022541    0.007246
     24          1           0       -0.507396    0.721216   -0.103036
     25          6           0       -3.098054   -0.219622    0.025453
     26          8           0       -1.925620   -2.258498    0.002418
     27          6           0       -4.349461   -0.873197   -0.066731
     28          6           0       -3.103834    1.182548    0.132585
     29          6           0       -5.532753   -0.124264   -0.074466
     30          8           0       -4.464020   -2.198193   -0.152724
     31          6           0       -4.273537    1.907584    0.136752
     32          1           0       -2.167127    1.716669    0.226502
     33          1           0       -6.468962   -0.664961   -0.156941
     34          6           0       -5.511615    1.253612    0.026128
     35          1           0       -3.550484   -2.563681   -0.105053
     36          1           0       -4.240767    2.988052    0.226157
     37          6           0       -6.787103    2.051322    0.031778
     38          1           0       -6.923153    2.550873    0.995489
     39          1           0       -6.762892    2.826809   -0.738515
     40          1           0       -7.657012    1.417657   -0.147656
 ---------------------------------------------------------------------

 The electronic state is 1-A.
 Alpha  occ. eigenvalues --  -19.25780 -19.23115 -14.46860 -10.37807 -10.35585
 Alpha  occ. eigenvalues --  -10.34518 -10.32830 -10.32774 -10.30698 -10.30651
 Alpha  occ. eigenvalues --  -10.30002 -10.29882 -10.29858 -10.29504 -10.29268
 Alpha  occ. eigenvalues --  -10.29251 -10.29018 -10.28457 -10.28264 -10.28033
 Alpha  occ. eigenvalues --  -10.27821  -1.16844  -1.13498  -1.07245  -0.96890
 Alpha  occ. eigenvalues --   -0.96457  -0.90744  -0.88692  -0.86578  -0.85123
 Alpha  occ. eigenvalues --   -0.84284  -0.83658  -0.80800  -0.78050  -0.73006
 Alpha  occ. eigenvalues --   -0.71551  -0.71075  -0.69934  -0.67864  -0.64412
 Alpha  occ. eigenvalues --   -0.62944  -0.61169  -0.59706  -0.58525  -0.57517
 Alpha  occ. eigenvalues --   -0.57222  -0.56038  -0.55015  -0.54154  -0.52533
 Alpha  occ. eigenvalues --   -0.52366  -0.52172  -0.52010  -0.51101  -0.50855
 Alpha  occ. eigenvalues --   -0.50620  -0.49661  -0.48546  -0.48008  -0.47957
 Alpha  occ. eigenvalues --   -0.46920  -0.46824  -0.45680  -0.45255  -0.45189
 Alpha  occ. eigenvalues --   -0.42641  -0.42120  -0.41752  -0.40864  -0.34874
 Alpha  occ. eigenvalues --   -0.34300  -0.34243  -0.32924  -0.29818  -0.26951
 Alpha virt. eigenvalues --   -0.01721   0.02917   0.03804   0.04003   0.04486
 Alpha virt. eigenvalues --    0.04886   0.04935   0.05633   0.06428   0.06534
 Alpha virt. eigenvalues --    0.06613   0.06732   0.07748   0.07884   0.08115

 Mulliken atomic charges:
              1
     1  H    0.184604
     2  H    0.180002
     3  C   -0.247884
     4  C   -0.390378
     5  C   -0.397083
     6  C   -0.271635
     7  N    0.050582
     8  H    0.167756
     9  H    0.153690
    10  C   -0.417672
    11  C    0.834607
    12  H    0.211123
    13  C   -0.398514
    14  C   -0.500110
    15  H    0.217238
    16  C    0.147628
    17  H    0.165153
    18  H    0.180360
    19  H    0.153159
    20  H    0.158858
    21  H    0.229224
    22  C    0.084050
    23  C    0.056087
    24  H   -0.163761
    25  C    1.089202
    26  O   -0.319496
    27  C   -0.301230
    28  C   -0.760173
    29  C   -0.828382
    30  O   -0.279099
    31  C   -0.605856
    32  H    0.128389
    33  H    0.200019
    34  C    0.754569
    35  H    0.356488
    36  H    0.214225
    37  C   -0.570154
    38  H    0.183660
    39  H    0.172016
    40  H    0.178741
 Sum of Mulliken atomic charges =   0.00000

 Dipole moment (field-independent basis, Debye):
    X=              5.9688    Y=              4.2455    Z=              0.2557  Tot=              7.3291
 Quadrupole moment (field-independent basis, Debye-Ang):
   XX=            -85.8011   YY=           -120.6326   ZZ=           -131.4582
   XY=             -9.9232   XZ=              0.3122   YZ=             -0.7990

 Normal termination of Gaussian 09 at Thu Oct 29 03:19:37 2015.
