 Gaussian 09, Revision C.01,
 Gaussian 09:  EM64L-G09RevC.01 23-Sep-2011

 -----------------------------------------------------------------
 #wb97xd 6-311++g** opt td(nstates=1,root=1) scf(maxcycle=500,xqc)
 -----------------------------------------------------------------

 99//99;
 -------
 GeomOpt
 -------
 Charge =  0 Multiplicity = 1

 SCF Done:  E(RwB97XD) =  -902.135331569     A.U. after   16 cycles
 SCF Done:  E(RwB97XD) =  -902.302108746     A.U. after   14 cycles
 SCF Done:  E(RwB97XD) =  -902.463672241     A.U. after   15 cycles
 SCF Done:  E(RwB97XD) =  -902.472548282     A.U. after   17 cycles
 SCF Done:  E(RwB97XD) =  -902.467186095     A.U. after   17 cycles
 SCF Done:  E(RwB97XD) =  -902.478138612     A.U. after   16 cycles
 SCF Done:  E(RwB97XD) =  -902.480200988     A.U. after   14 cycles
 SCF Done:  E(RwB97XD) =  -902.480382240     A.U. after   14 cycles
 SCF Done:  E(RwB97XD) =  -902.480652829     A.U. after   13 cycles
 SCF Done:  E(RwB97XD) =  -902.480339832     A.U. after   13 cycles
 SCF Done:  E(RwB97XD) =  -902.480119667     A.U. after   11 cycles
 SCF Done:  E(RwB97XD) =  -902.480138735     A.U. after   11 cycles
 SCF Done:  E(RwB97XD) =  -902.480159906     A.U. after   11 cycles
 SCF Done:  E(RwB97XD) =  -902.480157407     A.U. after   10 cycles
 SCF Done:  E(RwB97XD) =  -902.480143581     A.U. after   11 cycles
 SCF Done:  E(RwB97XD) =  -902.480133436     A.U. after   10 cycles
 SCF Done:  E(RwB97XD) =  -902.480134610     A.U. after   10 cycles
 SCF Done:  E(RwB97XD) =  -902.480141350     A.U. after   10 cycles
 SCF Done:  E(RwB97XD) =  -902.480144767     A.U. after    8 cycles
 SCF Done:  E(RwB97XD) =  -902.480146857     A.U. after    8 cycles

 Excitation energies and oscillator strengths:

 Excited State   1:      Singlet-A      3.2814 eV  377.84 nm  f=1.2483  <S**2>=0.000
      74 -> 78        -0.10962
      75 -> 76         0.67257
 This state for optimization and/or second-order correction.
 Total Energy, E(TD-HF/TD-KS) =  -902.359558478
 Copying the excited state density for this state as the 1-particle RhoCI density.

 Optimization completed.
    -- Stationary point found.

                         Standard orientation:
 ---------------------------------------------------------------------
 Center     Atomic      Atomic             Coordinates (Angstroms)
 Number     Number       Type             X           Y           Z
 ---------------------------------------------------------------------
      1          1           0        5.138650   -1.871504   -0.133051
      2          1           0        7.007169   -0.964730    0.785514
      3          6           0        4.338310   -1.146317   -0.075504
      4          6           0        7.028315   -0.246683   -0.041251
      5          6           0        4.635223    0.246261    0.020319
      6          6           0        3.045712   -1.587311   -0.098030
      7          7           0        5.924356    0.690486    0.043152
      8          1           0        7.011894   -0.802854   -0.985659
      9          1           0        7.967063    0.300646    0.012868
     10          6           0        3.541056    1.145736    0.091755
     11          6           0        1.933461   -0.697480   -0.029195
     12          1           0        2.849005   -2.651372   -0.174860
     13          6           0        6.205664    2.110779    0.116903
     14          6           0        2.245694    0.694795    0.070129
     15          1           0        3.718232    2.210044    0.170050
     16          6           0        0.612547   -1.208068   -0.059393
     17          1           0        5.787176    2.645328   -0.743791
     18          1           0        5.794511    2.551755    1.031964
     19          1           0        7.282789    2.263929    0.121504
     20          1           0        1.444654    1.420668    0.135554
     21          1           0        0.474558   -2.283820   -0.101331
     22          6           0       -0.541716   -0.430840   -0.046733
     23          6           0       -1.842242   -1.038428   -0.044000
     24          1           0       -0.464708    0.648256   -0.023823
     25          6           0       -3.052302   -0.204404   -0.047923
     26          8           0       -1.943993   -2.304023   -0.011176
     27          6           0       -4.323997   -0.848947    0.079343
     28          6           0       -3.058816    1.195147   -0.169592
     29          6           0       -5.501239   -0.096607    0.099588
     30          8           0       -4.409930   -2.166634    0.180975
     31          6           0       -4.231675    1.923884   -0.151787
     32          1           0       -2.124125    1.728268   -0.293655
     33          1           0       -6.439317   -0.631704    0.203001
     34          6           0       -5.474271    1.284621   -0.010835
     35          1           0       -3.460087   -2.504961    0.121113
     36          1           0       -4.193539    3.003429   -0.253559
     37          6           0       -6.753240    2.076407    0.023126
     38          1           0       -7.237961    1.989070    1.000541
     39          1           0       -6.571901    3.135684   -0.169223
     40          1           0       -7.462076    1.710446   -0.725146
 ---------------------------------------------------------------------

 The electronic state is 1-A.
 Alpha  occ. eigenvalues --  -19.24578 -19.22468 -14.47763 -10.37297 -10.35429
 Alpha  occ. eigenvalues --  -10.35075 -10.33407 -10.33387 -10.31337 -10.30719
 Alpha  occ. eigenvalues --  -10.30481 -10.30405 -10.29954 -10.29735 -10.29662
 Alpha  occ. eigenvalues --  -10.29514 -10.29009 -10.28431 -10.28037 -10.27762
 Alpha  occ. eigenvalues --  -10.27293  -1.15888  -1.11589  -1.08064  -0.96975
 Alpha  occ. eigenvalues --   -0.95903  -0.90745  -0.88482  -0.87238  -0.84951
 Alpha  occ. eigenvalues --   -0.84272  -0.83605  -0.80893  -0.78446  -0.73234
 Alpha  occ. eigenvalues --   -0.71653  -0.70802  -0.69373  -0.67978  -0.64414
 Alpha  occ. eigenvalues --   -0.63303  -0.61066  -0.59289  -0.58622  -0.57884
 Alpha  occ. eigenvalues --   -0.57276  -0.56115  -0.55273  -0.53970  -0.52773
 Alpha  occ. eigenvalues --   -0.52005  -0.51885  -0.51782  -0.51586  -0.50739
 Alpha  occ. eigenvalues --   -0.50132  -0.49983  -0.48577  -0.48203  -0.48051
 Alpha  occ. eigenvalues --   -0.46787  -0.46234  -0.46080  -0.45214  -0.44914
 Alpha  occ. eigenvalues --   -0.42422  -0.41724  -0.41268  -0.41078  -0.35044
 Alpha  occ. eigenvalues --   -0.34642  -0.33741  -0.32492  -0.29251  -0.26586
 Alpha virt. eigenvalues --   -0.02669   0.02644   0.03425   0.03903   0.04379
 Alpha virt. eigenvalues --    0.04754   0.04851   0.05631   0.06299   0.06376
 Alpha virt. eigenvalues --    0.06778   0.07345   0.07833   0.07890   0.08020

 Mulliken atomic charges:
              1
     1  H    0.189092
     2  H    0.175216
     3  C   -0.221170
     4  C   -0.379586
     5  C   -0.422085
     6  C   -0.255549
     7  N    0.052039
     8  H    0.179270
     9  H    0.154486
    10  C   -0.360144
    11  C    0.643695
    12  H    0.213917
    13  C   -0.386933
    14  C   -0.441592
    15  H    0.219460
    16  C    0.059277
    17  H    0.177260
    18  H    0.173835
    19  H    0.155338
    20  H    0.176371
    21  H    0.247512
    22  C    0.096698
    23  C    0.100611
    24  H   -0.223436
    25  C    1.119329
    26  O   -0.361368
    27  C   -0.146562
    28  C   -0.809616
    29  C   -0.234278
    30  O   -0.305672
    31  C   -1.127602
    32  H    0.149462
    33  H    0.222978
    34  C    0.611198
    35  H    0.387741
    36  H    0.182310
    37  C   -0.544655
    38  H    0.187497
    39  H    0.168902
    40  H    0.176754
 Sum of Mulliken atomic charges =   0.00000

 Dipole moment (field-independent basis, Debye):
    X=              7.6290    Y=              4.6094    Z=             -0.1130  Tot=              8.9141
 Quadrupole moment (field-independent basis, Debye-Ang):
   XX=            -82.7166   YY=           -121.6582   ZZ=           -131.5854
   XY=             -9.8932   XZ=              0.3041   YZ=              0.7433

 Normal termination of Gaussian 09 at Wed Oct 28 08:39:43 2015.
