 Gaussian 09, Revision C.01,
 Gaussian 09:  EM64L-G09RevC.01 23-Sep-2011

 -----------------------------------------------------------------
 #wb97xd opt 6-311++g** td(nstates=1,root=1) scf(maxcycle=500,xqc)
 -----------------------------------------------------------------

 99//99;
 -----------------------------------------------
 Methyl ketone substituent geometry optimization
 -----------------------------------------------
 Charge =  0 Multiplicity = 1

 SCF Done:  E(RwB97XD) =  -902.127423896     A.U. after   18 cycles
 SCF Done:  E(RwB97XD) =  -902.285842083     A.U. after   15 cycles
 SCF Done:  E(RwB97XD) =  -902.441971741     A.U. after   15 cycles
 SCF Done:  E(RwB97XD) =  -902.460151708     A.U. after   16 cycles
 SCF Done:  E(RwB97XD) =  -902.452586341     A.U. after   17 cycles
 SCF Done:  E(RwB97XD) =  -902.459625338     A.U. after   16 cycles
 SCF Done:  E(RwB97XD) =  -902.461061826     A.U. after   14 cycles
 SCF Done:  E(RwB97XD) =  -902.460760475     A.U. after   14 cycles
 SCF Done:  E(RwB97XD) =  -902.460864030     A.U. after   13 cycles
 SCF Done:  E(RwB97XD) =  -902.460891450     A.U. after   13 cycles
 SCF Done:  E(RwB97XD) =  -902.396790123     A.U. after   19 cycles
 SCF Done:  E(RwB97XD) =  -902.396684148     A.U. after   19 cycles
 SCF Done:  E(RwB97XD) =  -902.396674113     A.U. after   18 cycles
 SCF Done:  E(RwB97XD) =  -902.396512616     A.U. after   19 cycles
 SCF Done:  E(RwB97XD) =  -902.396483192     A.U. after   18 cycles
 SCF Done:  E(RwB97XD) =  -902.396489810     A.U. after   17 cycles
 SCF Done:  E(RwB97XD) =  -902.396488970     A.U. after   17 cycles
 SCF Done:  E(RwB97XD) =  -902.396481059     A.U. after   12 cycles
 SCF Done:  E(RwB97XD) =  -902.396455370     A.U. after   15 cycles
 SCF Done:  E(RwB97XD) =  -902.396425520     A.U. after   15 cycles

 Excitation energies and oscillator strengths:

 Excited State   1:      Singlet-A      0.3333 eV 3720.14 nm  f=0.0000  <S**2>=0.000
      75 -> 76        -0.68148
      75 -> 81         0.12330
 This state for optimization and/or second-order correction.
 Total Energy, E(TD-HF/TD-KS) =  -902.384177768
 Copying the excited state density for this state as the 1-particle RhoCI density.

 Optimization completed.
    -- Stationary point found.

                         Standard orientation:
 ---------------------------------------------------------------------
 Center     Atomic      Atomic             Coordinates (Angstroms)
 Number     Number       Type             X           Y           Z
 ---------------------------------------------------------------------
      1          1           0        5.141498   -1.766149    0.122774
      2          1           0        6.938194   -0.403258    1.140204
      3          6           0        4.320197   -1.064660    0.065611
      4          6           0        6.965456   -0.052016    0.097886
      5          6           0        4.563042    0.310430   -0.103243
      6          6           0        3.030838   -1.554370    0.159527
      7          7           0        5.850395    0.810291   -0.230860
      8          1           0        6.988859   -0.927105   -0.557402
      9          1           0        7.896716    0.492109   -0.057039
     10          6           0        3.437744    1.155546   -0.147123
     11          6           0        1.902691   -0.721755    0.102746
     12          1           0        2.886978   -2.622856    0.286509
     13          6           0        6.057684    2.238608   -0.123835
     14          6           0        2.154904    0.650464   -0.050698
     15          1           0        3.561103    2.224089   -0.260563
     16          6           0        0.582046   -1.298861    0.205820
     17          1           0        5.524121    2.771740   -0.915549
     18          1           0        5.732047    2.645119    0.845320
     19          1           0        7.118504    2.454312   -0.248112
     20          1           0        1.330418    1.352947   -0.093789
     21          1           0        0.534740   -2.376480    0.323906
     22          6           0       -0.612813   -0.612488    0.164851
     23          6           0       -1.860800   -1.190855    0.264074
     24          1           0       -0.615640    0.464822    0.040993
     25          6           0       -3.116616   -0.407539    0.237292
     26          8           0       -1.967911   -2.526985    0.486299
     27          6           0       -3.821343   -0.264266   -1.023949
     28          6           0       -3.645732    0.166075    1.380498
     29          6           0       -5.028614    0.535296   -1.031945
     30          8           0       -3.405790   -0.832131   -2.051317
     31          6           0       -4.813563    0.913995    1.324123
     32          1           0       -3.129540    0.044505    2.325718
     33          1           0       -5.527942    0.650748   -1.987770
     34          6           0       -5.517804    1.111502    0.105710
     35          1           0       -5.199392    1.369435    2.230076
     36          6           0       -6.769861    1.946125    0.106538
     37          1           0       -7.234717    1.965046   -0.879801
     38          1           0       -7.498930    1.554312    0.821025
     39          1           0       -6.547146    2.976668    0.397339
     40          1           0       -2.827767   -2.836497    0.199035
 ---------------------------------------------------------------------

 The electronic state is 1-A.
 Alpha  occ. eigenvalues --  -19.32639 -19.12618 -14.50151 -10.42667 -10.38251
 Alpha  occ. eigenvalues --  -10.37064 -10.34965 -10.34913 -10.33852 -10.33732
 Alpha  occ. eigenvalues --  -10.33430 -10.32514 -10.32419 -10.31883 -10.29491
 Alpha  occ. eigenvalues --  -10.26361 -10.25736 -10.24821 -10.24779 -10.22967
 Alpha  occ. eigenvalues --  -10.22232  -1.21187  -1.10100  -1.04410  -1.00641
 Alpha  occ. eigenvalues --   -0.95447  -0.91477  -0.89879  -0.89615  -0.86106
 Alpha  occ. eigenvalues --   -0.85489  -0.82376  -0.78607  -0.76941  -0.75231
 Alpha  occ. eigenvalues --   -0.74795  -0.71997  -0.70248  -0.67192  -0.65940
 Alpha  occ. eigenvalues --   -0.64020  -0.63144  -0.60587  -0.59741  -0.59511
 Alpha  occ. eigenvalues --   -0.58538  -0.58090  -0.55391  -0.55025  -0.54734
 Alpha  occ. eigenvalues --   -0.52940  -0.52734  -0.52215  -0.51350  -0.51010
 Alpha  occ. eigenvalues --   -0.50341  -0.49954  -0.49360  -0.48893  -0.47685
 Alpha  occ. eigenvalues --   -0.46201  -0.45508  -0.44525  -0.43863  -0.43575
 Alpha  occ. eigenvalues --   -0.42762  -0.40098  -0.39029  -0.38400  -0.37580
 Alpha  occ. eigenvalues --   -0.35463  -0.31045  -0.29250  -0.26001  -0.21298
 Alpha virt. eigenvalues --   -0.07745   0.01629   0.01673   0.03074   0.03556
 Alpha virt. eigenvalues --    0.03935   0.04760   0.05117   0.05216   0.06413
 Alpha virt. eigenvalues --    0.06752   0.06808   0.06944   0.07286   0.07791

 Mulliken atomic charges:
              1
     1  H    0.199693
     2  H    0.196838
     3  C   -0.157759
     4  C   -0.430981
     5  C   -0.718131
     6  C   -0.297534
     7  N    0.092434
     8  H    0.169120
     9  H    0.159947
    10  C   -0.412097
    11  C    1.149925
    12  H    0.218908
    13  C   -0.431574
    14  C   -0.923410
    15  H    0.252018
    16  C    0.204287
    17  H    0.167999
    18  H    0.196061
    19  H    0.162516
    20  H    0.129500
    21  H    0.254380
    22  C   -0.479586
    23  C   -0.089704
    24  H    0.180808
    25  C    1.051596
    26  O   -0.129476
    27  C   -0.470347
    28  C   -0.313028
    29  C   -0.632891
    30  O   -0.458817
    31  C   -0.221358
    32  H    0.177667
    33  H    0.186272
    34  C    0.680478
    35  H    0.181389
    36  C   -0.691142
    37  H    0.167373
    38  H    0.157991
    39  H    0.164755
    40  H    0.355881
 Sum of Mulliken atomic charges =   0.00000

 Dipole moment (field-independent basis, Debye):
    X=             15.2437    Y=              0.2714    Z=              4.3009  Tot=             15.8411
 Quadrupole moment (field-independent basis, Debye-Ang):
   XX=           -100.9107   YY=           -111.6499   ZZ=           -140.6311
   XY=              5.2901   XZ=            -11.2391   YZ=             -5.4778

 Normal termination of Gaussian 09 at Fri Nov  6 13:12:29 2015.
