 Gaussian 09, Revision C.01,
 Gaussian 09:  EM64L-G09RevC.01 23-Sep-2011

 ----------------------
 #wb97xd opt 6-311++g**
 ----------------------

 99/9=1/99;
 -----------------------------------------------
 Methyl ketone substituent geometry optimization
 -----------------------------------------------
 Charge =  0 Multiplicity = 1

 SCF Done:  E(RwB97XD) =  -902.127423896     A.U. after   18 cycles
 SCF Done:  E(RwB97XD) =  -902.287644696     A.U. after   16 cycles
 SCF Done:  E(RwB97XD) =  -902.446835155     A.U. after   16 cycles
 SCF Done:  E(RwB97XD) =  -902.448515572     A.U. after   18 cycles
 SCF Done:  E(RwB97XD) =  -902.461513835     A.U. after   18 cycles
 SCF Done:  E(RwB97XD) =  -902.462312034     A.U. after   17 cycles
 SCF Done:  E(RwB97XD) =  -902.470951991     A.U. after   16 cycles
 SCF Done:  E(RwB97XD) =  -902.469358734     A.U. after   15 cycles
 SCF Done:  E(RwB97XD) =  -902.471235595     A.U. after   14 cycles
 SCF Done:  E(RwB97XD) =  -902.471376778     A.U. after   14 cycles
 SCF Done:  E(RwB97XD) =  -902.486483778     A.U. after   15 cycles
 SCF Done:  E(RwB97XD) =  -902.487171743     A.U. after   16 cycles
 SCF Done:  E(RwB97XD) =  -902.487195817     A.U. after   13 cycles
 SCF Done:  E(RwB97XD) =  -902.487207872     A.U. after   12 cycles
 SCF Done:  E(RwB97XD) =  -902.487211880     A.U. after   12 cycles
 SCF Done:  E(RwB97XD) =  -902.487214921     A.U. after   12 cycles
 SCF Done:  E(RwB97XD) =  -902.487215728     A.U. after   10 cycles
 SCF Done:  E(RwB97XD) =  -902.487216162     A.U. after   10 cycles
 SCF Done:  E(RwB97XD) =  -902.487216172     A.U. after   10 cycles
 SCF Done:  E(RwB97XD) =  -902.487216155     A.U. after    8 cycles
 Optimization completed.
    -- Stationary point found.

                         Standard orientation:
 ---------------------------------------------------------------------
 Center     Atomic      Atomic             Coordinates (Angstroms)
 Number     Number       Type             X           Y           Z
 ---------------------------------------------------------------------
      1          1           0        5.093868   -1.893968    0.165772
      2          1           0        6.982906   -0.816505    1.112559
      3          6           0        4.328498   -1.134482    0.084848
      4          6           0        7.045223   -0.340033    0.125376
      5          6           0        4.676816    0.224839   -0.041266
      6          6           0        3.002359   -1.524052    0.106837
      7          7           0        5.988866    0.628120   -0.080843
      8          1           0        7.018879   -1.124944   -0.637639
      9          1           0        8.009424    0.160086    0.049827
     10          6           0        3.620282    1.158774   -0.128708
     11          6           0        1.953328   -0.603572    0.012507
     12          1           0        2.770523   -2.580128    0.204431
     13          6           0        6.311172    2.039580   -0.088020
     14          6           0        2.304003    0.747947   -0.104308
     15          1           0        3.830307    2.215826   -0.219019
     16          6           0        0.580445   -1.083538    0.040881
     17          1           0        5.888508    2.539501   -0.965766
     18          1           0        5.945458    2.552464    0.811182
     19          1           0        7.392503    2.160011   -0.130971
     20          1           0        1.530494    1.504504   -0.177492
     21          1           0        0.453275   -2.161296    0.120877
     22          6           0       -0.546826   -0.355962   -0.019770
     23          6           0       -1.858677   -1.022391    0.006671
     24          1           0       -0.507339    0.721484   -0.102127
     25          6           0       -3.098077   -0.219533    0.024954
     26          8           0       -1.925518   -2.258352    0.001499
     27          6           0       -4.349497   -0.873259   -0.066121
     28          6           0       -3.103919    1.182710    0.131117
     29          6           0       -5.532859   -0.124442   -0.073520
     30          8           0       -4.463992   -2.198313   -0.151260
     31          6           0       -4.273682    1.907652    0.135531
     32          1           0       -2.167209    1.717017    0.223921
     33          1           0       -6.469066   -0.665286   -0.155035
     34          6           0       -5.511778    1.253503    0.026194
     35          1           0       -4.240949    2.988192    0.224104
     36          6           0       -6.787361    2.051060    0.032243
     37          1           0       -6.923189    2.550551    0.996019
     38          1           0       -6.763505    2.826572   -0.738023
     39          1           0       -7.657244    1.417268   -0.146909
     40          1           0       -3.550337   -2.563669   -0.104395
 ---------------------------------------------------------------------

 The electronic state is 1-A.
 Alpha  occ. eigenvalues --  -19.25779 -19.23114 -14.46861 -10.37806 -10.35584
 Alpha  occ. eigenvalues --  -10.34518 -10.32831 -10.32776 -10.30697 -10.30651
 Alpha  occ. eigenvalues --  -10.30001 -10.29881 -10.29857 -10.29502 -10.29268
 Alpha  occ. eigenvalues --  -10.29251 -10.29017 -10.28456 -10.28264 -10.28032
 Alpha  occ. eigenvalues --  -10.27820  -1.16843  -1.13498  -1.07246  -0.96889
 Alpha  occ. eigenvalues --   -0.96456  -0.90743  -0.88692  -0.86578  -0.85123
 Alpha  occ. eigenvalues --   -0.84284  -0.83660  -0.80800  -0.78051  -0.73005
 Alpha  occ. eigenvalues --   -0.71550  -0.71075  -0.69933  -0.67864  -0.64411
 Alpha  occ. eigenvalues --   -0.62944  -0.61169  -0.59705  -0.58526  -0.57516
 Alpha  occ. eigenvalues --   -0.57222  -0.56037  -0.55014  -0.54153  -0.52532
 Alpha  occ. eigenvalues --   -0.52366  -0.52172  -0.52010  -0.51100  -0.50857
 Alpha  occ. eigenvalues --   -0.50619  -0.49662  -0.48545  -0.48009  -0.47957
 Alpha  occ. eigenvalues --   -0.46920  -0.46824  -0.45680  -0.45255  -0.45188
 Alpha  occ. eigenvalues --   -0.42641  -0.42119  -0.41752  -0.40864  -0.34873
 Alpha  occ. eigenvalues --   -0.34299  -0.34243  -0.32924  -0.29817  -0.26949
 Alpha virt. eigenvalues --   -0.01721   0.02917   0.03804   0.04003   0.04486
 Alpha virt. eigenvalues --    0.04886   0.04935   0.05633   0.06430   0.06534
 Alpha virt. eigenvalues --    0.06613   0.06732   0.07748   0.07885   0.08116

 Mulliken atomic charges:
              1
     1  H    0.184624
     2  H    0.179985
     3  C   -0.247938
     4  C   -0.390178
     5  C   -0.397987
     6  C   -0.271397
     7  N    0.050266
     8  H    0.167774
     9  H    0.153722
    10  C   -0.417229
    11  C    0.832094
    12  H    0.211124
    13  C   -0.398104
    14  C   -0.498263
    15  H    0.217312
    16  C    0.145782
    17  H    0.165268
    18  H    0.180182
    19  H    0.153170
    20  H    0.159191
    21  H    0.229402
    22  C    0.085218
    23  C    0.057846
    24  H   -0.164827
    25  C    1.091143
    26  O   -0.319545
    27  C   -0.300155
    28  C   -0.762165
    29  C   -0.827998
    30  O   -0.279143
    31  C   -0.606700
    32  H    0.128615
    33  H    0.200016
    34  C    0.753633
    35  H    0.214247
    36  C   -0.569901
    37  H    0.183707
    38  H    0.171947
    39  H    0.178737
    40  H    0.356524
 Sum of Mulliken atomic charges =   0.00000

 Dipole moment (field-independent basis, Debye):
    X=              5.9711    Y=              4.2456    Z=              0.2536  Tot=              7.3310
 Quadrupole moment (field-independent basis, Debye-Ang):
   XX=            -85.7831   YY=           -120.6329   ZZ=           -131.4584
   XY=             -9.9222   XZ=              0.3017   YZ=             -0.7981

 Normal termination of Gaussian 09 at Sat Oct 24 19:46:45 2015.
