 Gaussian 09, Revision D.01,
 Gaussian 09:  ES64L-G09RevD.01 24-Apr-2013

 -------------------------------------------
 #wb97xd 6-311++g** td(nstates=1,root=1) opt
 -------------------------------------------

 -----
 title
 -----
 Symbolic Z-matrix:
 Charge =  0 Multiplicity = 1

 SCF Done:  E(RwB97XD) =  -977.663792055     A.U. after   18 cycles
 SCF Done:  E(RwB97XD) =  -977.672984309     A.U. after   16 cycles
 SCF Done:  E(RwB97XD) =  -977.669506561     A.U. after   17 cycles
 SCF Done:  E(RwB97XD) =  -977.664426579     A.U. after   17 cycles
 SCF Done:  E(RwB97XD) =  -977.664194210     A.U. after   15 cycles
 SCF Done:  E(RwB97XD) =  -977.662105002     A.U. after   15 cycles
 SCF Done:  E(RwB97XD) =  -977.658309449     A.U. after   16 cycles
 SCF Done:  E(RwB97XD) =  -977.657059426     A.U. after   15 cycles
 SCF Done:  E(RwB97XD) =  -977.657511086     A.U. after   13 cycles
 SCF Done:  E(RwB97XD) =  -977.657144063     A.U. after   13 cycles
 SCF Done:  E(RwB97XD) =  -977.656790854     A.U. after   15 cycles
 SCF Done:  E(RwB97XD) =  -977.656903205     A.U. after   14 cycles
 SCF Done:  E(RwB97XD) =  -977.656809354     A.U. after   15 cycles
 SCF Done:  E(RwB97XD) =  -977.656695496     A.U. after   14 cycles
 SCF Done:  E(RwB97XD) =  -977.656653713     A.U. after   13 cycles
 SCF Done:  E(RwB97XD) =  -977.656632732     A.U. after   13 cycles
 SCF Done:  E(RwB97XD) =  -977.656629485     A.U. after   13 cycles
 SCF Done:  E(RwB97XD) =  -977.656658073     A.U. after   11 cycles
 SCF Done:  E(RwB97XD) =  -977.656625533     A.U. after   11 cycles
 SCF Done:  E(RwB97XD) =  -977.656639449     A.U. after    9 cycles

 Excitation energies and oscillator strengths:

 Excited State   1:      Singlet-A      2.5758 eV  481.34 nm  f=0.0633  <S**2>=0.000
      76 -> 80        -0.31950
      79 -> 80         0.58237
 This state for optimization and/or second-order correction.
 Total Energy, E(TD-HF/TD-KS) =  -977.561979330
 Copying the excited state density for this state as the 1-particle RhoCI density.

 Optimization completed.
    -- Stationary point found.

                         Standard orientation:
 ---------------------------------------------------------------------
 Center     Atomic      Atomic             Coordinates (Angstroms)
 Number     Number       Type             X           Y           Z
 ---------------------------------------------------------------------
      1          1           0        0.972922    2.304545   -0.504093
      2          6           0        2.347734    0.666097   -0.224584
      3          6           0        3.891622   -1.197505    0.077539
      4          6           0        5.013866   -0.350346    0.006122
      5          6           0        4.763732    1.022341   -0.169072
      6          6           0        3.472555    1.503551   -0.284260
      7          1           0        3.324607    2.570462   -0.420736
      8          6           0        6.494778   -2.204208    0.568496
      9          1           0        6.080045   -2.362054    1.575546
     10          1           0        7.561195   -2.426580    0.597674
     11          1           0        6.030985   -2.925763   -0.109805
     12          6           0        7.394350    0.081038    0.306927
     13          1           0        8.334924   -0.468736    0.336855
     14          1           0        7.291804    0.645233    1.246310
     15          7           0        6.306990   -0.850090    0.092335
     16          6           0        1.023162    1.231854   -0.344627
     17          6           0        2.606510   -0.701367   -0.038066
     18          1           0        4.019231   -2.261602    0.225336
     19          1           0        5.580587    1.729947   -0.215332
     20          1           0        7.464373    0.796658   -0.516326
     21          6           0       -0.169321    0.543073   -0.268737
     22          1           0        1.784260   -1.405728    0.024020
     23          6           0       -1.414130    1.147592   -0.366221
     24          1           0       -0.192055   -0.532245   -0.122274
     25          6           0       -2.725020    0.458606   -0.375592
     26          8           0       -1.693757    2.400171   -0.531867
     27          6           0       -3.701276    0.828296    0.588953
     28          6           0       -3.060362   -0.519845   -1.331738
     29          6           0       -4.886889    0.103596    0.706025
     30          8           0       -3.504509    1.837296    1.433768
     31          6           0       -4.225686   -1.231483   -1.224754
     32          1           0       -2.346947   -0.743916   -2.115101
     33          1           0       -5.585498    0.394378    1.477551
     34          6           0       -5.141451   -0.925095   -0.189642
     35          1           0       -2.773188    2.380238    1.090687
     36          1           0       -4.470651   -2.033807   -1.908634
     37          8           0       -6.247790   -1.680618   -0.172032
     38          6           0       -7.220646   -1.447925    0.832138
     39          1           0       -7.648381   -0.444958    0.739695
     40          1           0       -7.998095   -2.191086    0.669558
     41          1           0       -6.791764   -1.578771    1.830337
 ---------------------------------------------------------------------

 The electronic state is 1-A.
 Alpha  occ. eigenvalues --  -19.27553 -19.25985 -19.21550 -14.47710 -10.36760
 Alpha  occ. eigenvalues --  -10.35623 -10.34625 -10.34441 -10.33335 -10.33247
 Alpha  occ. eigenvalues --  -10.33232 -10.33195 -10.31214 -10.31194 -10.30844
 Alpha  occ. eigenvalues --  -10.30312 -10.30139 -10.29437 -10.28531 -10.27874
 Alpha  occ. eigenvalues --  -10.27151 -10.26739  -1.17597  -1.16397  -1.10129
 Alpha  occ. eigenvalues --   -1.07868  -0.98043  -0.94548  -0.91779  -0.87490
 Alpha  occ. eigenvalues --   -0.87022  -0.85163  -0.84251  -0.84173  -0.80583
 Alpha  occ. eigenvalues --   -0.78776  -0.74316  -0.72507  -0.70904  -0.69646
 Alpha  occ. eigenvalues --   -0.68554  -0.65018  -0.63841  -0.62554  -0.60524
 Alpha  occ. eigenvalues --   -0.58846  -0.58786  -0.57852  -0.57215  -0.56277
 Alpha  occ. eigenvalues --   -0.56006  -0.55706  -0.53861  -0.53078  -0.52928
 Alpha  occ. eigenvalues --   -0.51632  -0.51007  -0.50593  -0.50439  -0.49944
 Alpha  occ. eigenvalues --   -0.48976  -0.48748  -0.48391  -0.47269  -0.46669
 Alpha  occ. eigenvalues --   -0.45769  -0.45239  -0.44634  -0.43252  -0.42362
 Alpha  occ. eigenvalues --   -0.41393  -0.41079  -0.38676  -0.35301  -0.35169
 Alpha  occ. eigenvalues --   -0.33403  -0.30775  -0.28336  -0.26735
 Alpha virt. eigenvalues --   -0.03511   0.02664   0.03744   0.04028   0.04410
 Alpha virt. eigenvalues --    0.04803   0.05541   0.05818   0.05973   0.06255
 Alpha virt. eigenvalues --    0.06641   0.07338   0.07466   0.07706   0.07978

 Mulliken charges:
               1
     1  H    0.227469
     2  C    1.197134
     3  C   -0.387466
     4  C   -0.797366
     5  C   -0.118564
     6  C   -0.252047
     7  H    0.212518
     8  C   -0.430246
     9  H    0.186375
    10  H    0.156226
    11  H    0.161415
    12  C   -0.433441
    13  H    0.152434
    14  H    0.191308
    15  N    0.092928
    16  C    0.228376
    17  C   -0.983616
    18  H    0.237924
    19  H    0.189969
    20  H    0.161222
    21  C   -0.346601
    22  H    0.104980
    23  C   -0.102622
    24  H    0.167322
    25  C    1.164503
    26  O   -0.311408
    27  C   -0.474803
    28  C   -0.026121
    29  C    0.133601
    30  O   -0.200569
    31  C   -0.735872
    32  H    0.216763
    33  H    0.230929
    34  C   -0.385099
    35  H    0.307558
    36  H    0.225923
    37  O   -0.121720
    38  C   -0.389180
    39  H    0.170195
    40  H    0.212230
    41  H    0.167441
 Sum of Mulliken charges =   0.00000

 Dipole moment (field-independent basis, Debye):
    X=              7.6350    Y=             -3.4064    Z=              1.4409  Tot=              8.4837
 Quadrupole moment (field-independent basis, Debye-Ang):
   XX=            -80.8966   YY=           -130.8663   ZZ=           -134.6708
   XY=              4.2360   XZ=             -3.0400   YZ=             -0.9746

 Normal termination of Gaussian 09 at Fri Jul 21 06:03:40 2017.
