 Gaussian 09, Revision C.01,
 Gaussian 09:  EM64L-G09RevC.01 23-Sep-2011

 -----------------------------------------------------------------
 #wb97xd 6-311++g** td(nstates=1,root=1) opt scf(maxcycle=500,xqc)
 -----------------------------------------------------------------

 99//99;
 -----
 title
 -----
 Charge =  0 Multiplicity = 1

 SCF Done:  E(RwB97XD) =  -977.339502167     A.U. after   16 cycles
 SCF Done:  E(RwB97XD) =  -977.506923338     A.U. after   14 cycles
 SCF Done:  E(RwB97XD) =  -977.669510240     A.U. after   15 cycles
 SCF Done:  E(RwB97XD) =  -977.676459662     A.U. after   17 cycles
 SCF Done:  E(RwB97XD) =  -977.670713725     A.U. after   17 cycles
 SCF Done:  E(RwB97XD) =  -977.684345826     A.U. after   15 cycles
 SCF Done:  E(RwB97XD) =  -977.687669027     A.U. after   14 cycles
 SCF Done:  E(RwB97XD) =  -977.687556116     A.U. after   14 cycles
 SCF Done:  E(RwB97XD) =  -977.687517565     A.U. after   13 cycles
 SCF Done:  E(RwB97XD) =  -977.687571101     A.U. after   13 cycles
 SCF Done:  E(RwB97XD) =  -977.687287347     A.U. after   12 cycles
 SCF Done:  E(RwB97XD) =  -977.687327577     A.U. after   12 cycles
 SCF Done:  E(RwB97XD) =  -977.687368457     A.U. after   11 cycles
 SCF Done:  E(RwB97XD) =  -977.687369750     A.U. after   11 cycles
 SCF Done:  E(RwB97XD) =  -977.687361282     A.U. after   11 cycles
 SCF Done:  E(RwB97XD) =  -977.687356365     A.U. after   11 cycles
 SCF Done:  E(RwB97XD) =  -977.687359180     A.U. after   11 cycles
 SCF Done:  E(RwB97XD) =  -977.687363474     A.U. after   10 cycles
 SCF Done:  E(RwB97XD) =  -977.687364624     A.U. after    8 cycles
 SCF Done:  E(RwB97XD) =  -977.687362665     A.U. after    8 cycles

 Excitation energies and oscillator strengths:

 Excited State   1:      Singlet-A      3.2820 eV  377.77 nm  f=1.3091  <S**2>=0.000
      78 -> 83         0.10610
      79 -> 80         0.67885
 This state for optimization and/or second-order correction.
 Total Energy, E(TD-HF/TD-KS) =  -977.566750281
 Copying the excited state density for this state as the 1-particle RhoCI density.

 Optimization completed.
    -- Stationary point found.

                         Standard orientation:
 ---------------------------------------------------------------------
 Center     Atomic      Atomic             Coordinates (Angstroms)
 Number     Number       Type             X           Y           Z
 ---------------------------------------------------------------------
      1          1           0       -0.925712    2.336327   -0.103414
      2          6           0       -2.341967    0.712049   -0.041890
      3          6           0       -3.897815   -1.176468    0.074753
      4          6           0       -5.016794   -0.307011    0.024681
      5          6           0       -4.759059    1.094079   -0.062391
      6          6           0       -3.479726    1.571271   -0.093034
      7          1           0       -3.312981    2.641039   -0.161527
      8          6           0       -6.536075   -2.213318    0.130623
      9          1           0       -6.119868   -2.733393   -0.740144
     10          1           0       -7.608642   -2.394413    0.154777
     11          1           0       -6.096836   -2.647562    1.035844
     12          6           0       -7.422949    0.121632   -0.007647
     13          1           0       -8.346371   -0.451080    0.049017
     14          1           0       -7.429624    0.686287   -0.947183
     15          7           0       -6.293695   -0.786072    0.059143
     16          6           0       -1.036372    1.257077   -0.072525
     17          6           0       -2.615482   -0.689893    0.044361
     18          1           0       -4.045215   -2.246049    0.142825
     19          1           0       -5.579698    1.797364   -0.105489
     20          1           0       -7.414174    0.833238    0.825088
     21          6           0        0.138453    0.507920   -0.068247
     22          1           0       -1.794101   -1.394121    0.092800
     23          6           0        1.422546    1.143123   -0.057143
     24          1           0        0.086757   -0.572903   -0.060517
     25          6           0        2.650320    0.336527   -0.065801
     26          8           0        1.500810    2.411480   -0.013422
     27          6           0        3.904776    1.007042    0.071170
     28          6           0        2.691169   -1.065641   -0.199002
     29          6           0        5.107621    0.292176    0.093256
     30          8           0        3.960218    2.323705    0.182915
     31          6           0        3.870125   -1.771178   -0.183643
     32          1           0        1.769088   -1.618580   -0.328788
     33          1           0        6.020767    0.860337    0.205259
     34          6           0        5.091306   -1.087028   -0.031839
     35          1           0        2.997272    2.637616    0.121630
     36          1           0        3.887767   -2.848440   -0.291859
     37          8           0        6.196044   -1.864976   -0.026785
     38          6           0        7.454078   -1.241022    0.123139
     39          1           0        7.524575   -0.714614    1.081197
     40          1           0        8.192090   -2.040813    0.095249
     41          1           0        7.649256   -0.537425   -0.693358
 ---------------------------------------------------------------------

 The electronic state is 1-A.
 Alpha  occ. eigenvalues --  -19.28686 -19.24750 -19.22179 -14.47664 -10.37055
 Alpha  occ. eigenvalues --  -10.35836 -10.35562 -10.35324 -10.33853 -10.33322
 Alpha  occ. eigenvalues --  -10.33309 -10.31195 -10.30612 -10.30380 -10.29894
 Alpha  occ. eigenvalues --  -10.29848 -10.29635 -10.29420 -10.28637 -10.28304
 Alpha  occ. eigenvalues --  -10.27717 -10.27672  -1.18369  -1.16032  -1.11392
 Alpha  occ. eigenvalues --   -1.07963  -0.96864  -0.95558  -0.90565  -0.87391
 Alpha  occ. eigenvalues --   -0.87106  -0.84683  -0.84600  -0.84171  -0.81013
 Alpha  occ. eigenvalues --   -0.78689  -0.73537  -0.71722  -0.71035  -0.70210
 Alpha  occ. eigenvalues --   -0.67966  -0.64618  -0.63518  -0.62529  -0.61040
 Alpha  occ. eigenvalues --   -0.58986  -0.58819  -0.57793  -0.57233  -0.56654
 Alpha  occ. eigenvalues --   -0.55544  -0.54339  -0.54014  -0.53361  -0.52660
 Alpha  occ. eigenvalues --   -0.51498  -0.51275  -0.51187  -0.50698  -0.49845
 Alpha  occ. eigenvalues --   -0.48982  -0.48485  -0.48054  -0.47310  -0.46591
 Alpha  occ. eigenvalues --   -0.46535  -0.46042  -0.44817  -0.43211  -0.42268
 Alpha  occ. eigenvalues --   -0.41827  -0.40990  -0.39254  -0.34943  -0.34492
 Alpha  occ. eigenvalues --   -0.33676  -0.31525  -0.29118  -0.26370
 Alpha virt. eigenvalues --   -0.02417   0.02708   0.04008   0.04032   0.04423
 Alpha virt. eigenvalues --    0.04692   0.04983   0.05569   0.06356   0.06389
 Alpha virt. eigenvalues --    0.06634   0.07082   0.07561   0.07955   0.08111

 Mulliken atomic charges:
              1
     1  H    0.246683
     2  C    0.670905
     3  C   -0.367626
     4  C   -0.417556
     5  C   -0.230365
     6  C   -0.260667
     7  H    0.212534
     8  C   -0.384251
     9  H    0.177029
    10  H    0.154872
    11  H    0.173366
    12  C   -0.379306
    13  H    0.154193
    14  H    0.178647
    15  N    0.051490
    16  C    0.107693
    17  C   -0.464813
    18  H    0.219887
    19  H    0.190284
    20  H    0.175062
    21  C    0.115507
    22  H    0.171573
    23  C   -0.031753
    24  H   -0.218423
    25  C    1.277126
    26  O   -0.370875
    27  C   -0.096788
    28  C   -0.458160
    29  C   -0.134982
    30  O   -0.319046
    31  C   -0.800716
    32  H    0.162462
    33  H    0.235564
    34  C   -0.426404
    35  H    0.411087
    36  H    0.228412
    37  O   -0.128284
    38  C   -0.380572
    39  H    0.169665
    40  H    0.218139
    41  H    0.168409
 Sum of Mulliken atomic charges =   0.00000

 Dipole moment (field-independent basis, Debye):
    X=             -6.4653    Y=             -3.8956    Z=              0.0315  Tot=              7.5483
 Quadrupole moment (field-independent basis, Debye-Ang):
   XX=            -68.6609   YY=           -131.5702   ZZ=           -136.7780
   XY=             -2.0518   XZ=              0.5332   YZ=             -0.8258

 Normal termination of Gaussian 09 at Mon Nov 23 01:10:43 2015.
