 Gaussian 09, Revision C.01,
 Gaussian 09:  EM64L-G09RevC.01 23-Sep-2011

 ----------------------
 #wb97xd 6-311++g** opt
 ----------------------

 99/9=1/99;
 -----
 title
 -----
 Charge =  0 Multiplicity = 1

 SCF Done:  E(RwB97XD) =  -977.339502167     A.U. after   16 cycles
 SCF Done:  E(RwB97XD) =  -977.508078830     A.U. after   13 cycles
 SCF Done:  E(RwB97XD) =  -977.672766225     A.U. after   14 cycles
 SCF Done:  E(RwB97XD) =  -977.687239840     A.U. after   17 cycles
 SCF Done:  E(RwB97XD) =  -977.684191025     A.U. after   17 cycles
 SCF Done:  E(RwB97XD) =  -977.692923462     A.U. after   16 cycles
 SCF Done:  E(RwB97XD) =  -977.694213059     A.U. after   14 cycles
 SCF Done:  E(RwB97XD) =  -977.694196886     A.U. after   13 cycles
 SCF Done:  E(RwB97XD) =  -977.694336949     A.U. after   13 cycles
 SCF Done:  E(RwB97XD) =  -977.694407323     A.U. after   12 cycles
 SCF Done:  E(RwB97XD) =  -977.694468115     A.U. after   12 cycles
 SCF Done:  E(RwB97XD) =  -977.694475824     A.U. after   13 cycles
 SCF Done:  E(RwB97XD) =  -977.694478904     A.U. after   12 cycles
 SCF Done:  E(RwB97XD) =  -977.694481933     A.U. after   13 cycles
 SCF Done:  E(RwB97XD) =  -977.694482518     A.U. after    9 cycles
 SCF Done:  E(RwB97XD) =  -977.694483066     A.U. after    9 cycles
 SCF Done:  E(RwB97XD) =  -977.694483366     A.U. after   10 cycles
 SCF Done:  E(RwB97XD) =  -977.694483546     A.U. after    9 cycles
 SCF Done:  E(RwB97XD) =  -977.694483744     A.U. after    9 cycles
 SCF Done:  E(RwB97XD) =  -977.694483822     A.U. after    8 cycles
 Optimization completed.
    -- Stationary point found.

                         Standard orientation:
 ---------------------------------------------------------------------
 Center     Atomic      Atomic             Coordinates (Angstroms)
 Number     Number       Type             X           Y           Z
 ---------------------------------------------------------------------
      1          1           0       -0.893540    2.187103    0.094349
      2          6           0       -2.362860    0.599645    0.002256
      3          6           0       -3.998612   -1.192607   -0.126599
      4          6           0       -5.071324   -0.277209   -0.042307
      5          6           0       -4.746991    1.088454    0.076522
      6          6           0       -3.427948    1.501611    0.093648
      7          1           0       -3.214571    2.562080    0.185462
      8          6           0       -6.674193   -2.120323   -0.069017
      9          1           0       -6.242560   -2.622436   -0.941026
     10          1           0       -7.753290   -2.259867   -0.111387
     11          1           0       -6.299995   -2.616993    0.835935
     12          6           0       -7.447866    0.246627    0.134782
     13          1           0       -8.404298   -0.268525    0.060898
     14          1           0       -7.436738    1.033633   -0.626299
     15          7           0       -6.376737   -0.703521   -0.078311
     16          6           0       -0.999162    1.106286    0.025376
     17          6           0       -2.689529   -0.758329   -0.106828
     18          1           0       -4.190399   -2.253656   -0.210898
     19          1           0       -5.525512    1.834712    0.155185
     20          1           0       -7.389883    0.721920    1.122967
     21          6           0        0.143236    0.402840   -0.027797
     22          1           0       -1.902759   -1.501397   -0.177728
     23          6           0        1.439814    1.100575   -0.006050
     24          1           0        0.127931   -0.676310   -0.096919
     25          6           0        2.694199    0.332967    0.017969
     26          8           0        1.472789    2.340014   -0.016622
     27          6           0        3.929519    1.021575   -0.046514
     28          6           0        2.743643   -1.072474    0.107207
     29          6           0        5.141184    0.320981   -0.041197
     30          8           0        4.003467    2.348470   -0.116686
     31          6           0        3.926236   -1.766746    0.122861
     32          1           0        1.822925   -1.637100    0.175799
     33          1           0        6.050528    0.902825   -0.098478
     34          6           0        5.139454   -1.060838    0.043214
     35          1           0        3.073699    2.681072   -0.087504
     36          1           0        3.952833   -2.846120    0.197049
     37          8           0        6.254440   -1.818340    0.060387
     38          6           0        7.509495   -1.173173   -0.025206
     39          1           0        7.663791   -0.490470    0.816825
     40          1           0        8.255957   -1.964379    0.009552
     41          1           0        7.607701   -0.621774   -0.966156
 ---------------------------------------------------------------------

 The electronic state is 1-A.
 Alpha  occ. eigenvalues --  -19.28957 -19.25907 -19.22824 -14.46730 -10.37590
 Alpha  occ. eigenvalues --  -10.36122 -10.36057 -10.34381 -10.34125 -10.32724
 Alpha  occ. eigenvalues --  -10.32672 -10.30489 -10.30148 -10.29870 -10.29742
 Alpha  occ. eigenvalues --  -10.29373 -10.29131 -10.28960 -10.28896 -10.28325
 Alpha  occ. eigenvalues --  -10.28093 -10.28050  -1.18722  -1.16972  -1.13285
 Alpha  occ. eigenvalues --   -1.07121  -0.96755  -0.96121  -0.90509  -0.87542
 Alpha  occ. eigenvalues --   -0.86450  -0.85287  -0.84803  -0.83543  -0.81179
 Alpha  occ. eigenvalues --   -0.78121  -0.73575  -0.71673  -0.71173  -0.70595
 Alpha  occ. eigenvalues --   -0.67823  -0.64794  -0.63253  -0.62622  -0.61208
 Alpha  occ. eigenvalues --   -0.59193  -0.58593  -0.57619  -0.57115  -0.56973
 Alpha  occ. eigenvalues --   -0.55164  -0.54493  -0.54162  -0.53776  -0.52032
 Alpha  occ. eigenvalues --   -0.51938  -0.51427  -0.50868  -0.50799  -0.49607
 Alpha  occ. eigenvalues --   -0.49106  -0.48123  -0.47859  -0.47751  -0.47102
 Alpha  occ. eigenvalues --   -0.46713  -0.45394  -0.45101  -0.43629  -0.42504
 Alpha  occ. eigenvalues --   -0.42112  -0.40730  -0.39749  -0.34707  -0.34183
 Alpha  occ. eigenvalues --   -0.34169  -0.31913  -0.29596  -0.26788
 Alpha virt. eigenvalues --   -0.01412   0.02997   0.04107   0.04211   0.04419
 Alpha virt. eigenvalues --    0.04786   0.05109   0.05621   0.06420   0.06497
 Alpha virt. eigenvalues --    0.06631   0.06705   0.07571   0.08029   0.08170

 Mulliken atomic charges:
              1
     1  H    0.229935
     2  C    0.832782
     3  C   -0.430831
     4  C   -0.407152
     5  C   -0.263765
     6  C   -0.268271
     7  H    0.209976
     8  C   -0.396168
     9  H    0.164459
    10  H    0.152421
    11  H    0.180448
    12  C   -0.391649
    13  H    0.153276
    14  H    0.166936
    15  N    0.052320
    16  C    0.172263
    17  C   -0.479869
    18  H    0.216943
    19  H    0.185739
    20  H    0.180384
    21  C    0.066104
    22  H    0.160035
    23  C   -0.056386
    24  H   -0.178750
    25  C    1.287075
    26  O   -0.330681
    27  C   -0.015727
    28  C   -0.559329
    29  C   -0.091222
    30  O   -0.294856
    31  C   -0.849470
    32  H    0.154742
    33  H    0.237333
    34  C   -0.450445
    35  H    0.379655
    36  H    0.231696
    37  O   -0.127390
    38  C   -0.380951
    39  H    0.168573
    40  H    0.220107
    41  H    0.169711
 Sum of Mulliken atomic charges =   0.00000

 Dipole moment (field-independent basis, Debye):
    X=             -4.6962    Y=             -3.3960    Z=              0.1550  Tot=              5.7976
 Quadrupole moment (field-independent basis, Debye-Ang):
   XX=            -72.0074   YY=           -130.6380   ZZ=           -136.6804
   XY=             -1.8386   XZ=             -1.3396   YZ=              0.9975

 Normal termination of Gaussian 09 at Sun Nov 22 03:41:19 2015.
