 Gaussian 09, Revision D.01,
 Gaussian 09:  ES64L-G09RevD.01 24-Apr-2013

 -----------------------------------------------------------------
 #wb97xd 6-311++g** opt td(nstates=1,root=1) scf(maxcycle=500,xqc)
 -----------------------------------------------------------------

 -----
 title
 -----
 Symbolic Z-matrix:
 Charge =  0 Multiplicity = 1

 SCF Done:  E(RwB97XD) =  -977.598808596     A.U. after   25 cycles
 SCF Done:  E(RwB97XD) =  -977.619171070     A.U. after   23 cycles
 SCF Done:  E(RwB97XD) =  -977.600028874     A.U. after   20 cycles
 SCF Done:  E(RwB97XD) =  -977.598914370     A.U. after   17 cycles
 SCF Done:  E(RwB97XD) =  -977.600778988     A.U. after   19 cycles
 SCF Done:  E(RwB97XD) =  -977.602120463     A.U. after   19 cycles
 SCF Done:  E(RwB97XD) =  -977.602926621     A.U. after   19 cycles
 SCF Done:  E(RwB97XD) =  -977.603505695     A.U. after   18 cycles
 SCF Done:  E(RwB97XD) =  -977.604372217     A.U. after   19 cycles
 SCF Done:  E(RwB97XD) =  -977.604274633     A.U. after   17 cycles
 SCF Done:  E(RwB97XD) =  -977.604193675     A.U. after   16 cycles
 SCF Done:  E(RwB97XD) =  -977.604148285     A.U. after   19 cycles
 SCF Done:  E(RwB97XD) =  -977.604458229     A.U. after   18 cycles
 SCF Done:  E(RwB97XD) =  -977.602170190     A.U. after   19 cycles
 SCF Done:  E(RwB97XD) =  -977.603855327     A.U. after   19 cycles
 SCF Done:  E(RwB97XD) =  -977.603933825     A.U. after   17 cycles
 SCF Done:  E(RwB97XD) =  -977.603894038     A.U. after   13 cycles
 SCF Done:  E(RwB97XD) =  -977.603852643     A.U. after   17 cycles
 SCF Done:  E(RwB97XD) =  -977.603821650     A.U. after   13 cycles
 SCF Done:  E(RwB97XD) =  -977.603822797     A.U. after   10 cycles

 Excitation energies and oscillator strengths:

 Excited State   1:      Singlet-A      0.3525 eV 3517.39 nm  f=0.0000  <S**2>=0.000
      79 -> 80         0.68019
      79 -> 85        -0.13396
 This state for optimization and/or second-order correction.
 Total Energy, E(TD-HF/TD-KS) =  -977.590869075
 Copying the excited state density for this state as the 1-particle RhoCI density.

 Optimization completed.
    -- Stationary point found.

                         Standard orientation:
 ---------------------------------------------------------------------
 Center     Atomic      Atomic             Coordinates (Angstroms)
 Number     Number       Type             X           Y           Z
 ---------------------------------------------------------------------
      1          1           0       -0.995809    2.455118   -0.075127
      2          6           0       -2.303494    0.739037   -0.105190
      3          6           0       -3.771685   -1.206607   -0.133435
      4          6           0       -4.926009   -0.402517   -0.072568
      5          6           0       -4.730413    0.989010   -0.011408
      6          6           0       -3.459034    1.531499   -0.032300
      7          1           0       -3.351378    2.610642    0.017319
      8          6           0       -6.340198   -2.379372    0.140819
      9          1           0       -5.836324   -2.950348   -0.643919
     10          1           0       -7.397247   -2.641124    0.102365
     11          1           0       -5.938074   -2.700878    1.113007
     12          6           0       -7.323418   -0.111359    0.255264
     13          1           0       -8.239257   -0.699899    0.208515
     14          1           0       -7.425854    0.706340   -0.463668
     15          7           0       -6.197329   -0.956281   -0.081381
     16          6           0       -1.003686    1.370875   -0.117733
     17          6           0       -2.507418   -0.648703   -0.153655
     18          1           0       -3.857043   -2.284404   -0.166359
     19          1           0       -5.575817    1.660704    0.053228
     20          1           0       -7.241414    0.323909    1.262251
     21          6           0        0.214672    0.730034   -0.174676
     22          1           0       -1.658003   -1.320717   -0.200898
     23          6           0        1.439902    1.364317   -0.191005
     24          1           0        0.257843   -0.353147   -0.208073
     25          6           0        2.726081    0.639322   -0.266673
     26          8           0        1.492806    2.722072   -0.228528
     27          6           0        3.441567    0.355148    0.968764
     28          6           0        3.281126    0.253424   -1.480529
     29          6           0        4.686733   -0.378684    0.885011
     30          8           0        2.996760    0.759682    2.056684
     31          6           0        4.475053   -0.437164   -1.526855
     32          1           0        2.757876    0.479400   -2.401969
     33          1           0        5.185241   -0.589281    1.821193
     34          6           0        5.180600   -0.758321   -0.329653
     35          1           0        2.334825    3.023863    0.114567
     36          1           0        4.904137   -0.759907   -2.467091
     37          8           0        6.327675   -1.437212   -0.534765
     38          6           0        7.090381   -1.802029    0.599411
     39          1           0        6.519316   -2.461334    1.261169
     40          1           0        7.960622   -2.331817    0.218079
     41          1           0        7.415173   -0.916952    1.156408
 ---------------------------------------------------------------------

 The electronic state is 1-A.
 Alpha  occ. eigenvalues --  -19.32456 -19.24826 -19.12841 -14.50089 -10.42565
 Alpha  occ. eigenvalues --  -10.38183 -10.36961 -10.34912 -10.34858 -10.33785
 Alpha  occ. eigenvalues --  -10.33668 -10.33358 -10.32461 -10.32357 -10.31796
 Alpha  occ. eigenvalues --  -10.30983 -10.30892 -10.29935 -10.26533 -10.24524
 Alpha  occ. eigenvalues --  -10.22888 -10.22373  -1.21013  -1.14592  -1.10043
 Alpha  occ. eigenvalues --   -1.04754  -1.00575  -0.95355  -0.91234  -0.89711
 Alpha  occ. eigenvalues --   -0.89363  -0.86053  -0.84709  -0.81703  -0.78834
 Alpha  occ. eigenvalues --   -0.78364  -0.75256  -0.74863  -0.71912  -0.70177
 Alpha  occ. eigenvalues --   -0.67383  -0.65997  -0.64956  -0.63139  -0.61207
 Alpha  occ. eigenvalues --   -0.59688  -0.59587  -0.58676  -0.58038  -0.57202
 Alpha  occ. eigenvalues --   -0.55724  -0.55283  -0.54684  -0.53326  -0.53233
 Alpha  occ. eigenvalues --   -0.52834  -0.52285  -0.51081  -0.50648  -0.50207
 Alpha  occ. eigenvalues --   -0.49965  -0.49439  -0.49148  -0.46506  -0.45666
 Alpha  occ. eigenvalues --   -0.44567  -0.44227  -0.43875  -0.42473  -0.41777
 Alpha  occ. eigenvalues --   -0.39958  -0.38738  -0.38042  -0.37525  -0.34705
 Alpha  occ. eigenvalues --   -0.30986  -0.27461  -0.26329  -0.21482
 Alpha virt. eigenvalues --   -0.07665   0.01678   0.01720   0.03116   0.03647
 Alpha virt. eigenvalues --    0.03959   0.04820   0.05174   0.05349   0.06179
 Alpha virt. eigenvalues --    0.06729   0.06792   0.06973   0.07261   0.07811

 Mulliken charges:
               1
     1  H    0.251013
     2  C    1.196564
     3  C   -0.424032
     4  C   -0.745863
     5  C   -0.115695
     6  C   -0.226122
     7  H    0.220897
     8  C   -0.432770
     9  H    0.166148
    10  H    0.161165
    11  H    0.198958
    12  C   -0.430496
    13  H    0.162154
    14  H    0.168148
    15  N    0.091884
    16  C    0.194137
    17  C   -0.979488
    18  H    0.252490
    19  H    0.200432
    20  H    0.196200
    21  C   -0.558081
    22  H    0.127928
    23  C   -0.087315
    24  H    0.189226
    25  C    0.932764
    26  O   -0.124635
    27  C   -0.612895
    28  C   -0.028738
    29  C    0.609959
    30  O   -0.460092
    31  C   -0.636968
    32  H    0.190052
    33  H    0.213479
    34  C   -0.427637
    35  H    0.353779
    36  H    0.201647
    37  O   -0.139208
    38  C   -0.375256
    39  H    0.165419
    40  H    0.196334
    41  H    0.164513
 Sum of Mulliken charges =   0.00000

 Dipole moment (field-independent basis, Debye):
    X=            -14.8858    Y=             -0.3360    Z=             -2.1781  Tot=             15.0480
 Quadrupole moment (field-independent basis, Debye-Ang):
   XX=            -91.7687   YY=           -115.2018   ZZ=           -145.8597
   XY=              5.0023   XZ=             -4.4046   YZ=             -5.2460

 Normal termination of Gaussian 09 at Fri Feb 26 21:35:57 2016.
