 Gaussian 09, Revision C.01,
 Gaussian 09:  EM64L-G09RevC.01 23-Sep-2011

 ----------------------
 #wb97xd 6-311++g** opt
 ----------------------

 99/9=1/99;
 -----
 title
 -----
 Charge =  0 Multiplicity = 1

 SCF Done:  E(RwB97XD) =  -977.297922744     A.U. after   17 cycles
 SCF Done:  E(RwB97XD) =  -977.472821663     A.U. after   15 cycles
 SCF Done:  E(RwB97XD) =  -977.651556536     A.U. after   16 cycles
 SCF Done:  E(RwB97XD) =  -977.673140021     A.U. after   17 cycles
 SCF Done:  E(RwB97XD) =  -977.653365299     A.U. after   17 cycles
 SCF Done:  E(RwB97XD) =  -977.679425204     A.U. after   17 cycles
 SCF Done:  E(RwB97XD) =  -977.680940085     A.U. after   14 cycles
 SCF Done:  E(RwB97XD) =  -977.681814571     A.U. after   13 cycles
 SCF Done:  E(RwB97XD) =  -977.681401878     A.U. after   13 cycles
 SCF Done:  E(RwB97XD) =  -977.681912428     A.U. after   13 cycles
 SCF Done:  E(RwB97XD) =  -977.694461822     A.U. after   10 cycles
 SCF Done:  E(RwB97XD) =  -977.694471833     A.U. after   11 cycles
 SCF Done:  E(RwB97XD) =  -977.694477146     A.U. after   11 cycles
 SCF Done:  E(RwB97XD) =  -977.694480572     A.U. after   12 cycles
 SCF Done:  E(RwB97XD) =  -977.694481834     A.U. after   11 cycles
 SCF Done:  E(RwB97XD) =  -977.694482435     A.U. after   10 cycles
 SCF Done:  E(RwB97XD) =  -977.694482827     A.U. after   10 cycles
 SCF Done:  E(RwB97XD) =  -977.694483260     A.U. after   10 cycles
 SCF Done:  E(RwB97XD) =  -977.694483542     A.U. after    9 cycles
 SCF Done:  E(RwB97XD) =  -977.694483756     A.U. after   10 cycles
 Optimization completed.
    -- Stationary point found.

                         Standard orientation:
 ---------------------------------------------------------------------
 Center     Atomic      Atomic             Coordinates (Angstroms)
 Number     Number       Type             X           Y           Z
 ---------------------------------------------------------------------
      1          1           0       -0.893532    2.187032    0.093579
      2          6           0       -2.362885    0.599574    0.002332
      3          6           0       -3.998679   -1.192661   -0.126035
      4          6           0       -5.071371   -0.277211   -0.042032
      5          6           0       -4.746999    1.088476    0.076490
      6          6           0       -3.427947    1.501592    0.093495
      7          1           0       -3.214537    2.562068    0.185032
      8          6           0       -6.674329   -2.120264   -0.069390
      9          1           0       -6.242630   -2.621997   -0.941602
     10          1           0       -7.753432   -2.259710   -0.111940
     11          1           0       -6.300276   -2.617400    0.835364
     12          6           0       -7.447972    0.246786    0.134137
     13          1           0       -8.404379   -0.268416    0.060239
     14          1           0       -7.436562    1.033366   -0.627402
     15          7           0       -6.376775   -0.703498   -0.077916
     16          6           0       -0.999166    1.106187    0.025260
     17          6           0       -2.689586   -0.758414   -0.106364
     18          1           0       -4.190488   -2.253728   -0.209983
     19          1           0       -5.525490    1.834770    0.155027
     20          1           0       -7.390374    0.722663    1.122064
     21          6           0        0.143209    0.402677   -0.027379
     22          1           0       -1.902837   -1.501512   -0.177068
     23          6           0        1.439778    1.100431   -0.006001
     24          1           0        0.127913   -0.676521   -0.095746
     25          6           0        2.694222    0.332863    0.018073
     26          8           0        1.472776    2.339866   -0.016845
     27          6           0        3.929454    1.021569   -0.046327
     28          6           0        2.743777   -1.072588    0.107215
     29          6           0        5.141202    0.321097   -0.040933
     30          8           0        4.003324    2.348509   -0.116476
     31          6           0        3.926422   -1.766744    0.122858
     32          1           0        1.823085   -1.637264    0.175684
     33          1           0        6.050497    0.903029   -0.098047
     34          6           0        5.139593   -1.060719    0.043332
     35          1           0        3.073519    2.681012   -0.087490
     36          1           0        3.953121   -2.846116    0.196948
     37          8           0        6.254630   -1.818164    0.060528
     38          6           0        7.509634   -1.173028   -0.026039
     39          1           0        7.664673   -0.490396    0.815922
     40          1           0        8.256101   -1.964258    0.008056
     41          1           0        7.607080   -0.621569   -0.967031
 ---------------------------------------------------------------------

 The electronic state is 1-A.
 Alpha  occ. eigenvalues --  -19.28956 -19.25906 -19.22824 -14.46731 -10.37591
 Alpha  occ. eigenvalues --  -10.36122 -10.36056 -10.34382 -10.34125 -10.32724
 Alpha  occ. eigenvalues --  -10.32673 -10.30489 -10.30148 -10.29869 -10.29742
 Alpha  occ. eigenvalues --  -10.29373 -10.29131 -10.28960 -10.28896 -10.28325
 Alpha  occ. eigenvalues --  -10.28092 -10.28050  -1.18721  -1.16970  -1.13285
 Alpha  occ. eigenvalues --   -1.07122  -0.96755  -0.96121  -0.90509  -0.87541
 Alpha  occ. eigenvalues --   -0.86450  -0.85286  -0.84804  -0.83544  -0.81178
 Alpha  occ. eigenvalues --   -0.78121  -0.73575  -0.71672  -0.71173  -0.70595
 Alpha  occ. eigenvalues --   -0.67823  -0.64794  -0.63253  -0.62622  -0.61208
 Alpha  occ. eigenvalues --   -0.59193  -0.58594  -0.57619  -0.57115  -0.56973
 Alpha  occ. eigenvalues --   -0.55164  -0.54493  -0.54162  -0.53776  -0.52032
 Alpha  occ. eigenvalues --   -0.51937  -0.51427  -0.50868  -0.50800  -0.49608
 Alpha  occ. eigenvalues --   -0.49106  -0.48123  -0.47859  -0.47750  -0.47102
 Alpha  occ. eigenvalues --   -0.46713  -0.45393  -0.45100  -0.43628  -0.42504
 Alpha  occ. eigenvalues --   -0.42112  -0.40730  -0.39749  -0.34706  -0.34183
 Alpha  occ. eigenvalues --   -0.34169  -0.31913  -0.29596  -0.26788
 Alpha virt. eigenvalues --   -0.01412   0.02997   0.04107   0.04212   0.04419
 Alpha virt. eigenvalues --    0.04786   0.05110   0.05621   0.06420   0.06497
 Alpha virt. eigenvalues --    0.06631   0.06706   0.07571   0.08029   0.08170

 Mulliken atomic charges:
              1
     1  H    0.230013
     2  C    0.831613
     3  C   -0.430874
     4  C   -0.407616
     5  C   -0.263868
     6  C   -0.267874
     7  H    0.209973
     8  C   -0.395990
     9  H    0.164477
    10  H    0.152436
    11  H    0.180414
    12  C   -0.391519
    13  H    0.153292
    14  H    0.166947
    15  N    0.052152
    16  C    0.171645
    17  C   -0.479160
    18  H    0.216951
    19  H    0.185759
    20  H    0.180362
    21  C    0.066769
    22  H    0.160153
    23  C   -0.055963
    24  H   -0.179156
    25  C    1.287445
    26  O   -0.330703
    27  C   -0.015554
    28  C   -0.559554
    29  C   -0.091287
    30  O   -0.294924
    31  C   -0.849506
    32  H    0.154870
    33  H    0.237325
    34  C   -0.450433
    35  H    0.379688
    36  H    0.231700
    37  O   -0.127418
    38  C   -0.380969
    39  H    0.168583
    40  H    0.220096
    41  H    0.169706
 Sum of Mulliken atomic charges =   0.00000

 Dipole moment (field-independent basis, Debye):
    X=             -4.6980    Y=             -3.3962    Z=              0.1527  Tot=              5.7991
 Quadrupole moment (field-independent basis, Debye-Ang):
   XX=            -72.0001   YY=           -130.6377   ZZ=           -136.6804
   XY=             -1.8389   XZ=             -1.3393   YZ=              0.9977

 Normal termination of Gaussian 09 at Sun Nov 22 04:26:38 2015.
