 Gaussian 09, Revision C.01,
 Gaussian 09:  EM64L-G09RevC.01 23-Sep-2011

 ---------------------------
 #wb97xd opt 6-311++g** freq
 ---------------------------

 99/9=1/99;
 ---------------------------------------------
 para-methyl substituent geometry optimization
 ---------------------------------------------
 Charge =  0 Multiplicity = 1

 SCF Done:  E(RwB97XD) =  -902.272747012     A.U. after   18 cycles
 SCF Done:  E(RwB97XD) =  -902.389915879     A.U. after   15 cycles
 SCF Done:  E(RwB97XD) =  -902.481121582     A.U. after   15 cycles
 SCF Done:  E(RwB97XD) =  -902.484130018     A.U. after   16 cycles
 SCF Done:  E(RwB97XD) =  -902.483766046     A.U. after   16 cycles
 SCF Done:  E(RwB97XD) =  -902.484998509     A.U. after   15 cycles
 SCF Done:  E(RwB97XD) =  -902.485164262     A.U. after   14 cycles
 SCF Done:  E(RwB97XD) =  -902.485197531     A.U. after   13 cycles
 SCF Done:  E(RwB97XD) =  -902.485211551     A.U. after   13 cycles
 SCF Done:  E(RwB97XD) =  -902.485218798     A.U. after   13 cycles
 SCF Done:  E(RwB97XD) =  -902.485264187     A.U. after   12 cycles
 SCF Done:  E(RwB97XD) =  -902.485265168     A.U. after   11 cycles
 SCF Done:  E(RwB97XD) =  -902.485266568     A.U. after   11 cycles
 SCF Done:  E(RwB97XD) =  -902.485267744     A.U. after   12 cycles
 SCF Done:  E(RwB97XD) =  -902.485268240     A.U. after   12 cycles
 SCF Done:  E(RwB97XD) =  -902.485268279     A.U. after   11 cycles
 SCF Done:  E(RwB97XD) =  -902.485268265     A.U. after   11 cycles
 SCF Done:  E(RwB97XD) =  -902.485268242     A.U. after    8 cycles
 SCF Done:  E(RwB97XD) =  -902.485268216     A.U. after    9 cycles
 Optimization completed.
    -- Stationary point found.
 Normal termination of Gaussian 09 at Sat Oct 17 02:24:29 2015.

 ----------------------------------------------------------------------
 #N Geom=AllCheck Guess=TCheck SCRF=Check GenChk RwB97XD/6-311++G(d,p)
 Freq
 ----------------------------------------------------------------------

 Structure from the checkpoint file:  paramethyl_opt.chk
 ---------------------------------------------
 para-methyl substituent geometry optimization
 ---------------------------------------------
 Charge =  0 Multiplicity = 1

                         Standard orientation:
 ---------------------------------------------------------------------
 Center     Atomic      Atomic             Coordinates (Angstroms)
 Number     Number       Type             X           Y           Z
 ---------------------------------------------------------------------
      1          8           0       -4.603459   -2.301361    0.119855
      2          8           0       -2.064203   -2.338160   -0.041739
      3          6           0       -4.492386   -0.972741    0.068086
      4          6           0       -5.631635    1.151610    0.028585
      5          6           0       -5.675141   -0.223156    0.093814
      6          1           0       -6.615828   -0.756326    0.160602
      7          1           0       -6.562870    1.710627    0.045670
      8          1           0       -3.690029   -2.662504    0.061123
      9          6           0       -2.002644   -1.102923   -0.013263
     10          6           0       -3.249353   -0.305497   -0.008056
     11          6           0       -4.415918    1.845668   -0.065994
     12          6           0       -0.693183   -0.432803    0.028671
     13          6           0       -3.253704    1.100396   -0.078814
     14          6           0       -4.397382    3.349900   -0.149003
     15          1           0       -0.655492    0.642081    0.138500
     16          6           0        0.435629   -1.156326   -0.052654
     17          1           0       -2.311939    1.629293   -0.159867
     18          1           0       -4.963126    3.705081   -1.015298
     19          1           0       -4.844083    3.800831    0.742090
     20          1           0       -3.377581    3.729929   -0.239465
     21          1           0        0.310299   -2.232265   -0.155980
     22          6           0        1.807564   -0.674856   -0.018825
     23          6           0        2.156677    0.676738    0.102017
     24          6           0        2.857632   -1.594197   -0.113710
     25          1           0        1.382158    1.432531    0.172540
     26          6           0        3.472514    1.088582    0.131131
     27          1           0        2.626871   -2.650096   -0.215527
     28          6           0        4.183287   -1.203720   -0.086127
     29          1           0        3.681505    2.145673    0.223245
     30          6           0        4.530093    0.155604    0.044674
     31          1           0        4.949456   -1.962362   -0.167044
     32          7           0        5.841649    0.559696    0.088640
     33          6           0        6.162999    1.971387    0.099280
     34          6           0        6.899168   -0.407066   -0.118668
     35          1           0        5.800829    2.485454   -0.800705
     36          1           0        7.244052    2.092412    0.147177
     37          1           0        5.736325    2.469577    0.976012
     38          1           0        6.872558   -1.193841    0.642403
     39          1           0        6.838522   -0.881127   -1.107100
     40          1           0        7.862832    0.093725   -0.040648
 ---------------------------------------------------------------------

 SCF Done:  E(RwB97XD) =  -902.485268216     A.U. after    2 cycles

 The electronic state is 1-A.
 Alpha  occ. eigenvalues --  -19.25688 -19.23232 -14.46918 -10.37913 -10.35406
 Alpha  occ. eigenvalues --  -10.34581 -10.32877 -10.32819 -10.30778 -10.30068
 Alpha  occ. eigenvalues --  -10.29943 -10.29562 -10.29534 -10.29470 -10.29415
 Alpha  occ. eigenvalues --  -10.29312 -10.29243 -10.29072 -10.28520 -10.28194
 Alpha  occ. eigenvalues --  -10.28141  -1.16775  -1.13562  -1.07301  -0.96951
 Alpha  occ. eigenvalues --   -0.96484  -0.90742  -0.87702  -0.86648  -0.86523
 Alpha  occ. eigenvalues --   -0.84776  -0.83708  -0.78612  -0.78171  -0.74774
 Alpha  occ. eigenvalues --   -0.72148  -0.71375  -0.68719  -0.67394  -0.64470
 Alpha  occ. eigenvalues --   -0.63040  -0.61390  -0.60125  -0.58539  -0.57890
 Alpha  occ. eigenvalues --   -0.57272  -0.55447  -0.54989  -0.54266  -0.52437
 Alpha  occ. eigenvalues --   -0.52305  -0.52190  -0.51719  -0.51327  -0.50941
 Alpha  occ. eigenvalues --   -0.50429  -0.49661  -0.48774  -0.48086  -0.48015
 Alpha  occ. eigenvalues --   -0.47036  -0.46927  -0.45868  -0.45260  -0.44915
 Alpha  occ. eigenvalues --   -0.42693  -0.42165  -0.41460  -0.40930  -0.34957
 Alpha  occ. eigenvalues --   -0.34360  -0.34287  -0.33662  -0.29251  -0.27007
 Alpha virt. eigenvalues --   -0.01868   0.02873   0.03574   0.03855   0.04484
 Alpha virt. eigenvalues --    0.04859   0.04944   0.05666   0.06414   0.06445
 Alpha virt. eigenvalues --    0.06615   0.06687   0.07952   0.08067   0.08119

 Mulliken atomic charges:
              1
     1  O   -0.287303
     2  O   -0.293707
     3  C   -0.112355
     4  C   -0.249368
     5  C   -0.352318
     6  H    0.233986
     7  H    0.211627
     8  H    0.362803
     9  C   -0.056657
    10  C    1.623762
    11  C   -0.275665
    12  C    0.264138
    13  C   -1.224655
    14  C   -0.531010
    15  H   -0.129936
    16  C    0.157522
    17  H    0.033859
    18  H    0.171135
    19  H    0.175121
    20  H    0.172006
    21  H    0.228746
    22  C    0.976524
    23  C   -0.632758
    24  C   -0.273141
    25  H    0.142274
    26  C   -0.322022
    27  H    0.212865
    28  C   -0.279739
    29  H    0.232643
    30  C   -0.628505
    31  H    0.185295
    32  N    0.052490
    33  C   -0.391600
    34  C   -0.396526
    35  H    0.179849
    36  H    0.154213
    37  H    0.164390
    38  H    0.167789
    39  H    0.180282
    40  H    0.153948
 Sum of Mulliken atomic charges =   0.00000

 Dipole moment (field-independent basis, Debye):
    X=              6.3846    Y=              4.3040    Z=             -0.1768  Tot=              7.7019
 Quadrupole moment (field-independent basis, Debye-Ang):
   XX=            -91.2729   YY=           -120.9558   ZZ=           -131.4187
   XY=            -10.6771   XZ=             -0.5344   YZ=              0.9069

  Exact polarizability: 440.799   2.002 239.231  -3.017   1.478 127.444
 Approx polarizability: 357.414   2.709 280.523  -2.759   2.738 156.809

                     1                      2                      3
                     A                      A                      A
 Frequencies --    21.5627                24.7859                42.3904
 Red. masses --     3.9798                 4.0281                 4.6435
 Frc consts  --     0.0011                 0.0015                 0.0049
 IR Inten    --     0.0914                 0.3500                 0.1871

                     4                      5                      6
                     A                      A                      A
 Frequencies --    48.9011                68.7570                75.7131
 Red. masses --     4.5506                 2.1668                 1.0734
 Frc consts  --     0.0064                 0.0060                 0.0036
 IR Inten    --     1.0814                 2.1805                 0.2670

                     7                      8                      9
                     A                      A                      A
 Frequencies --    82.2038                99.6616               138.1512
 Red. masses --     2.7797                 3.1772                 4.8175
 Frc consts  --     0.0111                 0.0186                 0.0542
 IR Inten    --     5.0732                 0.4857                 0.1702

                    10                     11                     12
                     A                      A                      A
 Frequencies --   146.5280               156.7195               174.8648
 Red. masses --     4.2107                 2.0075                 4.4831
 Frc consts  --     0.0533                 0.0291                 0.0808
 IR Inten    --     0.0163                 0.3496                 0.1358

                    13                     14                     15
                     A                      A                      A
 Frequencies --   180.8781               216.4755               249.6006
 Red. masses --     4.3725                 1.3975                 2.7365
 Frc consts  --     0.0843                 0.0386                 0.1004
 IR Inten    --     0.2261                 0.6791                 0.4467

                    16                     17                     18
                     A                      A                      A
 Frequencies --   266.8586               316.9576               338.8009
 Red. masses --     1.7382                 3.3554                 4.2570
 Frc consts  --     0.0729                 0.1986                 0.2879
 IR Inten    --     1.0837                 0.3895                 2.7636

                    19                     20                     21
                     A                      A                      A
 Frequencies --   364.4520               382.5263               399.2509
 Red. masses --     5.2372                 3.6395                 3.7955
 Frc consts  --     0.4099                 0.3138                 0.3565
 IR Inten    --     7.4468                 2.7054                19.9647

                    22                     23                     24
                     A                      A                      A
 Frequencies --   431.8753               441.8617               447.9470
 Red. masses --     2.9744                 4.7812                 5.0580
 Frc consts  --     0.3269                 0.5500                 0.5980
 IR Inten    --     0.2656                 2.4943                 0.2113

                    25                     26                     27
                     A                      A                      A
 Frequencies --   476.9786               477.6445               502.4934
 Red. masses --     4.1608                 5.9158                 3.5963
 Frc consts  --     0.5577                 0.7952                 0.5350
 IR Inten    --     7.2715                 5.9786                 3.6274

                    28                     29                     30
                     A                      A                      A
 Frequencies --   526.5404               542.5698               547.1314
 Red. masses --     2.3813                 2.9461                 3.4310
 Frc consts  --     0.3890                 0.5110                 0.6051
 IR Inten    --    24.9434                 2.4020                 3.3266

                    31                     32                     33
                     A                      A                      A
 Frequencies --   562.5297               659.0343               691.6283
 Red. masses --     4.0718                 7.0146                 6.3253
 Frc consts  --     0.7592                 1.7950                 1.7827
 IR Inten    --    36.6506                 0.4753                60.1869

                    34                     35                     36
                     A                      A                      A
 Frequencies --   699.6038               730.5359               740.1575
 Red. masses --     3.8939                 5.0336                 3.1399
 Frc consts  --     1.1229                 1.5827                 1.0135
 IR Inten    --     2.1241                13.3793                 3.4208

                    37                     38                     39
                     A                      A                      A
 Frequencies --   771.2871               796.5965               821.5480
 Red. masses --     3.4944                 5.2822                 3.8357
 Frc consts  --     1.2248                 1.9749                 1.5253
 IR Inten    --     4.9071                11.1190                11.0145

                    40                     41                     42
                     A                      A                      A
 Frequencies --   822.4436               825.3773               840.9165
 Red. masses --     1.3345                 1.2770                 1.9112
 Frc consts  --     0.5318                 0.5126                 0.7963
 IR Inten    --     8.2250                69.7548               104.7819

                    43                     44                     45
                     A                      A                      A
 Frequencies --   853.1602               884.1305               892.2194
 Red. masses --     1.4152                 2.0215                 4.3587
 Frc consts  --     0.6069                 0.9310                 2.0443
 IR Inten    --     5.7837                10.4558                 3.8267

                    46                     47                     48
                     A                      A                      A
 Frequencies --   896.7424               953.7003               965.8600
 Red. masses --     1.4562                 3.5112                 1.3386
 Frc consts  --     0.6900                 1.8816                 0.7357
 IR Inten    --     2.5639                 0.7088                 0.4270

                    49                     50                     51
                     A                      A                      A
 Frequencies --   982.7028               987.4020               993.1738
 Red. masses --     1.3411                 2.9830                 1.3232
 Frc consts  --     0.7631                 1.7135                 0.7690
 IR Inten    --     0.0731                18.6779                 0.3063

                    52                     53                     54
                     A                      A                      A
 Frequencies --  1022.6478              1028.4191              1037.3863
 Red. masses --     1.7004                 2.6536                 1.2325
 Frc consts  --     1.0478                 1.6536                 0.7815
 IR Inten    --    66.9699                 4.4631                26.4988

                    55                     56                     57
                     A                      A                      A
 Frequencies --  1054.2285              1072.7388              1097.7333
 Red. masses --     2.8140                 1.5017                 1.4503
 Frc consts  --     1.8426                 1.0182                 1.0297
 IR Inten    --   156.1628                 3.3590                21.3164

                    58                     59                     60
                     A                      A                      A
 Frequencies --  1147.6937              1151.0611              1169.3098
 Red. masses --     1.2713                 1.2900                 1.3304
 Frc consts  --     0.9866                 1.0070                 1.0717
 IR Inten    --    13.4079                19.6087                 1.7600

                    61                     62                     63
                     A                      A                      A
 Frequencies --  1173.3529              1204.3105              1215.7901
 Red. masses --     1.4363                 1.9502                 1.7708
 Frc consts  --     1.1651                 1.6665                 1.5422
 IR Inten    --    13.7164               540.8939               369.2775

                    64                     65                     66
                     A                      A                      A
 Frequencies --  1225.4311              1246.4158              1261.9785
 Red. masses --     1.3374                 1.9379                 1.7785
 Frc consts  --     1.1833                 1.7738                 1.6688
 IR Inten    --     5.2778                27.8860                19.3589

                    67                     68                     69
                     A                      A                      A
 Frequencies --  1293.9472              1298.5419              1316.1234
 Red. masses --     2.4293                 2.2607                 2.5481
 Frc consts  --     2.3964                 2.2459                 2.6005
 IR Inten    --    82.5093                50.7626                61.5416

                    70                     71                     72
                     A                      A                      A
 Frequencies --  1347.8462              1351.4205              1372.7568
 Red. masses --     1.9768                 2.3634                 1.7424
 Frc consts  --     2.1159                 2.5431                 1.9345
 IR Inten    --    64.5277                37.2088               206.1214

                    73                     74                     75
                     A                      A                      A
 Frequencies --  1383.8112              1401.1222              1415.2184
 Red. masses --     2.8131                 3.3077                 3.4107
 Frc consts  --     3.1738                 3.8258                 4.0247
 IR Inten    --    19.3370               309.4606               213.0436

                    76                     77                     78
                     A                      A                      A
 Frequencies --  1422.3661              1441.9276              1458.0623
 Red. masses --     1.3157                 1.5683                 1.2289
 Frc consts  --     1.5683                 1.9212                 1.5393
 IR Inten    --     2.5821               122.5035                 9.0947

                    79                     80                     81
                     A                      A                      A
 Frequencies --  1467.3092              1487.4986              1490.2315
 Red. masses --     2.3588                 2.0881                 1.0938
 Frc consts  --     2.9921                 2.7222                 1.4312
 IR Inten    --    28.6694                30.7528                10.7076

                    82                     83                     84
                     A                      A                      A
 Frequencies --  1491.5265              1498.7415              1503.5538
 Red. masses --     1.0448                 1.1615                 1.0907
 Frc consts  --     1.3695                 1.5372                 1.4527
 IR Inten    --     7.4288                30.3222                23.0522

                    85                     86                     87
                     A                      A                      A
 Frequencies --  1510.6513              1528.5731              1546.0112
 Red. masses --     1.3989                 1.1320                 1.1328
 Frc consts  --     1.8809                 1.5583                 1.5952
 IR Inten    --    12.5378                24.1761               116.8288

                    88                     89                     90
                     A                      A                      A
 Frequencies --  1547.5176              1583.3055              1620.6435
 Red. masses --     2.2040                 2.7927                 6.0419
 Frc consts  --     3.1098                 4.1248                 9.3497
 IR Inten    --   104.8420               611.7859                94.8559

                    91                     92                     93
                     A                      A                      A
 Frequencies --  1646.5673              1652.9776              1690.2484
 Red. masses --     6.8767                 3.6735                 6.1896
 Frc consts  --    10.9848                 5.9137                10.4187
 IR Inten    --  1232.2155                10.4769               175.3648

                    94                     95                     96
                     A                      A                      A
 Frequencies --  1703.5607              1730.8843              3010.0492
 Red. masses --     6.0488                 6.3488                 1.0427
 Frc consts  --    10.3427                11.2068                 5.5662
 IR Inten    --     3.7621               337.8182                83.9137

                    97                     98                     99
                     A                      A                      A
 Frequencies --  3017.0326              3046.3549              3074.5070
 Red. masses --     1.0459                 1.0369                 1.0973
 Frc consts  --     5.6094                 5.6696                 6.1109
 IR Inten    --   100.8643                41.1271                18.5816

                   100                    101                    102
                     A                      A                      A
 Frequencies --  3076.0330              3108.7506              3131.7364
 Red. masses --     1.0993                 1.1014                 1.1015
 Frc consts  --     6.1282                 6.2712                 6.3651
 IR Inten    --    51.7748                17.0318                16.3710

                   103                    104                    105
                     A                      A                      A
 Frequencies --  3151.0814              3162.2896              3171.2343
 Red. masses --     1.0984                 1.0960                 1.0889
 Frc consts  --     6.4258                 6.4573                 6.4518
 IR Inten    --     2.5247                37.6978                 0.6157

                   106                    107                    108
                     A                      A                      A
 Frequencies --  3182.4666              3193.3637              3197.5787
 Red. masses --     1.0897                 1.0901                 1.0895
 Frc consts  --     6.5028                 6.5497                 6.5634
 IR Inten    --    15.7880                 7.6244                 6.7546

                   109                    110                    111
                     A                      A                      A
 Frequencies --  3212.8038              3221.8178              3236.2460
 Red. masses --     1.0905                 1.0943                 1.0919
 Frc consts  --     6.6320                 6.6927                 6.7375
 IR Inten    --     2.6538                 7.8222                12.1572

                   112                    113                    114
                     A                      A                      A
 Frequencies --  3238.8522              3244.0204              3406.6594
 Red. masses --     1.0919                 1.0873                 1.0676
 Frc consts  --     6.7483                 6.7416                 7.3001
 IR Inten    --     7.9021                16.9158               574.7705

 - Thermochemistry -
 -------------------
 Temperature   298.150 Kelvin.  Pressure   1.00000 Atm.
 Atom     1 has atomic number  8 and mass  15.99491

 Molecular mass:   281.14158 amu.
 Principal axes and moments of inertia in atomic units:
                           1         2         3
     Eigenvalues --  2337.64113********************
           X            0.99998  -0.00599  -0.00019
           Y            0.00600   0.99998   0.00104
           Z            0.00019  -0.00104   1.00000
 This molecule is an asymmetric top.
 Rotational symmetry number  1.
 Warning -- assumption of classical behavior for rotation
           may cause significant error
 Rotational temperatures (Kelvin)      0.03705     0.00486     0.00431
 Rotational constants (GHZ):           0.77204     0.10131     0.08979
 Zero-point vibrational energy     873011.7 (Joules/Mol)
                                  208.65479 (Kcal/Mol)
 Warning -- explicit consideration of  31 degrees of freedom as
           vibrations may cause significant error
 Vibrational temperatures:     31.02    35.66    60.99    70.36    98.93
          (Kelvin)            108.93   118.27   143.39   198.77   210.82
                              225.48   251.59   260.24   311.46   359.12
                              383.95   456.03   487.46   524.36   550.37
                              574.43   621.37   635.74   644.49   686.26
                              687.22   722.97   757.57   780.64   787.20
                              809.35   948.20   995.10  1006.57  1051.08
                             1064.92  1109.71  1146.12  1182.02  1183.31
                             1187.53  1209.89  1227.51  1272.07  1283.70
                             1290.21  1372.16  1389.66  1413.89  1420.65
                             1428.95  1471.36  1479.66  1492.57  1516.80
                             1543.43  1579.39  1651.27  1656.12  1682.37
                             1688.19  1732.73  1749.25  1763.12  1793.31
                             1815.70  1861.70  1868.31  1893.61  1939.25
                             1944.39  1975.09  1990.99  2015.90  2036.18
                             2046.47  2074.61  2097.82  2111.13  2140.18
                             2144.11  2145.97  2156.35  2163.28  2173.49
                             2199.27  2224.36  2226.53  2278.02  2331.74
                             2369.04  2378.26  2431.89  2451.04  2490.35
                             4330.78  4340.83  4383.02  4423.52  4425.72
                             4472.79  4505.86  4533.70  4549.82  4562.69
                             4578.85  4594.53  4600.60  4622.50  4635.47
                             4656.23  4659.98  4667.42  4901.42

 Zero-point correction=                           0.332513 (Hartree/Particle)
 Thermal correction to Energy=                    0.352517
 Thermal correction to Enthalpy=                  0.353461
 Thermal correction to Gibbs Free Energy=         0.281373
 Sum of electronic and zero-point Energies=           -902.152756
 Sum of electronic and thermal Energies=              -902.132752
 Sum of electronic and thermal Enthalpies=            -902.131807
 Sum of electronic and thermal Free Energies=         -902.203895

                     E (Thermal)             CV                S
                      KCal/Mol        Cal/Mol-Kelvin    Cal/Mol-Kelvin
 Total                  221.208             75.121            151.722
 Electronic               0.000              0.000              0.000
 Translational            0.889              2.981             42.799
 Rotational               0.889              2.981             35.080
 Vibrational            219.430             69.160             73.842
 Vibration     1          0.593              1.985              6.485
 Vibration     2          0.593              1.985              6.208
 Vibration     3          0.595              1.980              5.144
 Vibration     4          0.595              1.978              4.861
 Vibration     5          0.598              1.969              4.189
 Vibration     6          0.599              1.965              3.999
 Vibration     7          0.600              1.961              3.838
 Vibration     8          0.604              1.949              3.461
 Vibration     9          0.614              1.915              2.829
 Vibration    10          0.617              1.906              2.717
 Vibration    11          0.620              1.895              2.589
 Vibration    12          0.627              1.873              2.383
 Vibration    13          0.630              1.866              2.319
 Vibration    14          0.645              1.816              1.988
 Vibration    15          0.662              1.763              1.733
 Vibration    16          0.672              1.734              1.616
 Vibration    17          0.704              1.641              1.326
 Vibration    18          0.719              1.598              1.218
 Vibration    19          0.738              1.545              1.103
 Vibration    20          0.752              1.507              1.029
 Vibration    21          0.765              1.472              0.965
 Vibration    22          0.793              1.401              0.853
 Vibration    23          0.802              1.379              0.821
 Vibration    24          0.807              1.365              0.802
 Vibration    25          0.834              1.301              0.718
 Vibration    26          0.834              1.300              0.716
 Vibration    27          0.858              1.244              0.652
 Vibration    28          0.881              1.191              0.595
 Vibration    29          0.898              1.156              0.560
 Vibration    30          0.902              1.146              0.550
 Vibration    31          0.918              1.112              0.519

 Normal termination of Gaussian 09 at Sat Oct 17 09:58:10 2015.
