 Gaussian 09, Revision C.01,
 Gaussian 09:  EM64L-G09RevC.01 23-Sep-2011

 ----------------------------------------------------------------------
 #wb97xd opt 6-311++g** td(nstates=1,root=1) geom=allcheck scf(maxcycle
 =500,xqc)
 ----------------------------------------------------------------------

 Structure from the checkpoint file:  pMeketo_optS1.chk
 ---------------------------------------------------------
 paramethyl substituent keto form S1 geometry optimization
 ---------------------------------------------------------
 Charge =  0 Multiplicity = 1

 SCF Done:  E(RwB97XD) =  -902.390762425     A.U. after   25 cycles
 SCF Done:  E(RwB97XD) =  -902.405779867     A.U. after   24 cycles
 SCF Done:  E(RwB97XD) =  -902.391389820     A.U. after   26 cycles
 SCF Done:  E(RwB97XD) =  -902.390809183     A.U. after   25 cycles
 SCF Done:  E(RwB97XD) =  -902.393357072     A.U. after   23 cycles
 SCF Done:  E(RwB97XD) =  -902.393440082     A.U. after   22 cycles
 SCF Done:  E(RwB97XD) =  -902.393292130     A.U. after   19 cycles
 SCF Done:  E(RwB97XD) =  -902.393354439     A.U. after   18 cycles
 SCF Done:  E(RwB97XD) =  -902.393309854     A.U. after   18 cycles
 SCF Done:  E(RwB97XD) =  -902.393333467     A.U. after   22 cycles
 SCF Done:  E(RwB97XD) =  -902.393034621     A.U. after   22 cycles
 SCF Done:  E(RwB97XD) =  -902.392810757     A.U. after   22 cycles
 SCF Done:  E(RwB97XD) =  -902.392892175     A.U. after   22 cycles
 SCF Done:  E(RwB97XD) =  -902.393199361     A.U. after   19 cycles
 SCF Done:  E(RwB97XD) =  -902.393110375     A.U. after   18 cycles
 SCF Done:  E(RwB97XD) =  -902.393049309     A.U. after   19 cycles
 SCF Done:  E(RwB97XD) =  -902.392923302     A.U. after   19 cycles
 SCF Done:  E(RwB97XD) =  -902.392886005     A.U. after   17 cycles
 SCF Done:  E(RwB97XD) =  -902.392800221     A.U. after   19 cycles
 SCF Done:  E(RwB97XD) =  -902.392767594     A.U. after   19 cycles

 Excitation energies and oscillator strengths:

 Excited State   1:      Singlet-A      0.2001 eV 6196.69 nm  f=0.0000  <S**2>=0.000
      75 -> 76         0.68437
      75 -> 81         0.11960
 This state for optimization and/or second-order correction.
 Total Energy, E(TD-HF/TD-KS) =  -902.385414738
 Copying the excited state density for this state as the 1-particle RhoCI density.

 Optimization completed.
    -- Stationary point found.

                         Standard orientation:
 ---------------------------------------------------------------------
 Center     Atomic      Atomic             Coordinates (Angstroms)
 Number     Number       Type             X           Y           Z
 ---------------------------------------------------------------------
      1          8           0       -3.414853   -1.450213    2.008354
      2          8           0       -2.109850   -2.260443   -1.004755
      3          6           0       -3.857525   -0.587381    1.226786
      4          6           0       -5.549281    1.075423    0.627330
      5          6           0       -5.048543    0.177286    1.524926
      6          1           0       -5.521706    0.003243    2.484041
      7          1           0       -6.446056    1.637701    0.866969
      8          6           0       -1.967846   -1.066637   -0.371739
      9          6           0       -3.208004   -0.324904   -0.044631
     10          6           0       -4.921132    1.294985   -0.621790
     11          6           0       -0.706543   -0.556369   -0.150932
     12          6           0       -3.759071    0.576880   -0.929278
     13          6           0       -5.485438    2.276947   -1.603924
     14          1           0       -0.683390    0.423810    0.312245
     15          6           0        0.472709   -1.196034   -0.471035
     16          1           0       -3.266025    0.750267   -1.880439
     17          1           0       -5.882320    1.755944   -2.481113
     18          1           0       -6.293558    2.865157   -1.167262
     19          1           0       -4.712065    2.962515   -1.959737
     20          1           0        0.400196   -2.176318   -0.930459
     21          6           0        1.806883   -0.684950   -0.257441
     22          6           0        2.092378    0.556037    0.333250
     23          6           0        2.914988   -1.447555   -0.657820
     24          1           0        1.284511    1.200158    0.661286
     25          6           0        3.387829    1.002108    0.515639
     26          1           0        2.745501   -2.412142   -1.126210
     27          6           0        4.216214   -1.014804   -0.483634
     28          1           0        3.535912    1.970860    0.973278
     29          6           0        4.493149    0.224311    0.121652
     30          1           0        5.020469   -1.654267   -0.821656
     31          7           0        5.795365    0.654541    0.330626
     32          6           0        6.021016    2.033105    0.708703
     33          6           0        6.869936   -0.030678   -0.356157
     34          1           0        5.657457    2.747743   -0.044978
     35          1           0        7.089710    2.194411    0.847601
     36          1           0        5.533407    2.260876    1.660273
     37          1           0        6.934835   -1.075583   -0.040351
     38          1           0        6.755292   -0.008100   -1.450074
     39          1           0        7.816859    0.443943   -0.100611
     40          1           0       -2.969278   -2.633364   -0.805399
 ---------------------------------------------------------------------

 The electronic state is 1-A.
 Alpha  occ. eigenvalues --  -19.32795 -19.12357 -14.50206 -10.42777 -10.38319
 Alpha  occ. eigenvalues --  -10.37173 -10.35003 -10.34949 -10.33926 -10.33810
 Alpha  occ. eigenvalues --  -10.33511 -10.32583 -10.32488 -10.31985 -10.29300
 Alpha  occ. eigenvalues --  -10.26094 -10.25141 -10.24685 -10.24566 -10.24098
 Alpha  occ. eigenvalues --  -10.22400  -1.21334  -1.10149  -1.04190  -1.00714
 Alpha  occ. eigenvalues --   -0.95547  -0.91661  -0.89938  -0.89673  -0.86143
 Alpha  occ. eigenvalues --   -0.85015  -0.81493  -0.80880  -0.77538  -0.75182
 Alpha  occ. eigenvalues --   -0.72661  -0.71992  -0.70382  -0.68332  -0.66106
 Alpha  occ. eigenvalues --   -0.64101  -0.63271  -0.60833  -0.59795  -0.59554
 Alpha  occ. eigenvalues --   -0.58324  -0.58135  -0.55445  -0.54878  -0.54384
 Alpha  occ. eigenvalues --   -0.52980  -0.52806  -0.52260  -0.51429  -0.51379
 Alpha  occ. eigenvalues --   -0.50467  -0.50035  -0.49456  -0.48911  -0.47509
 Alpha  occ. eigenvalues --   -0.46624  -0.45650  -0.44601  -0.44214  -0.43043
 Alpha  occ. eigenvalues --   -0.42769  -0.40120  -0.38962  -0.38530  -0.37647
 Alpha  occ. eigenvalues --   -0.34929  -0.31125  -0.30186  -0.25838  -0.20667
 Alpha virt. eigenvalues --   -0.07836   0.01565   0.01641   0.03039   0.03511
 Alpha virt. eigenvalues --    0.03870   0.04707   0.05046   0.05163   0.06294
 Alpha virt. eigenvalues --    0.06627   0.06795   0.06976   0.07364   0.07625

 Mulliken atomic charges:
              1
     1  O   -0.447696
     2  O   -0.124087
     3  C   -0.538189
     4  C   -0.812845
     5  C    0.056273
     6  H    0.220601
     7  H    0.146971
     8  C   -0.027077
     9  C    1.170917
    10  C    0.446638
    11  C   -0.594747
    12  C   -0.276854
    13  C   -0.636128
    14  H    0.187958
    15  C    0.207695
    16  H    0.194557
    17  H    0.161894
    18  H    0.158001
    19  H    0.143564
    20  H    0.250244
    21  C    1.197142
    22  C   -0.964211
    23  C   -0.204345
    24  H    0.126957
    25  C   -0.426759
    26  H    0.218563
    27  C   -0.147189
    28  H    0.252366
    29  C   -0.786649
    30  H    0.202558
    31  N    0.094919
    32  C   -0.434569
    33  C   -0.434957
    34  H    0.197153
    35  H    0.164347
    36  H    0.167114
    37  H    0.170142
    38  H    0.195449
    39  H    0.161311
    40  H    0.362966
 Sum of Mulliken atomic charges =   0.00000

 Dipole moment (field-independent basis, Debye):
    X=             15.2707    Y=              1.5497    Z=             -4.9556  Tot=             16.1293
 Quadrupole moment (field-independent basis, Debye-Ang):
   XX=           -103.5357   YY=           -118.4791   ZZ=           -137.3945
   XY=              2.1456   XZ=             13.9858   YZ=             13.9676

 Normal termination of Gaussian 09 at Sat Oct 31 15:21:21 2015.
