 Gaussian 09, Revision C.01,
 Gaussian 09:  EM64L-G09RevC.01 23-Sep-2011

 ---------------------------
 #wb97xd opt freq 6-311++g**
 ---------------------------

 99/9=1/99;
 ------------------------------------------------
 paramethoxy substituent S1 geometry optimization
 ------------------------------------------------
 Charge =  0 Multiplicity = 1

 SCF Done:  E(RwB97XD) =  -977.353469515     A.U. after   17 cycles
 SCF Done:  E(RwB97XD) =  -977.514061997     A.U. after   14 cycles
 SCF Done:  E(RwB97XD) =  -977.669430453     A.U. after   15 cycles
 SCF Done:  E(RwB97XD) =  -977.681161691     A.U. after   18 cycles
 SCF Done:  E(RwB97XD) =  -977.679106164     A.U. after   18 cycles
 SCF Done:  E(RwB97XD) =  -977.686224546     A.U. after   17 cycles
 SCF Done:  E(RwB97XD) =  -977.687108737     A.U. after   14 cycles
 SCF Done:  E(RwB97XD) =  -977.686915035     A.U. after   14 cycles
 SCF Done:  E(RwB97XD) =  -977.687352705     A.U. after   14 cycles
 SCF Done:  E(RwB97XD) =  -977.687369785     A.U. after   12 cycles
 SCF Done:  E(RwB97XD) =  -977.687422295     A.U. after   14 cycles
 SCF Done:  E(RwB97XD) =  -977.687422702     A.U. after   12 cycles
 SCF Done:  E(RwB97XD) =  -977.687426167     A.U. after   11 cycles
 SCF Done:  E(RwB97XD) =  -977.687467965     A.U. after   13 cycles
 SCF Done:  E(RwB97XD) =  -977.687468657     A.U. after   11 cycles
 SCF Done:  E(RwB97XD) =  -977.687468471     A.U. after   11 cycles
 SCF Done:  E(RwB97XD) =  -977.687468624     A.U. after   11 cycles
 SCF Done:  E(RwB97XD) =  -977.687468827     A.U. after   11 cycles
 SCF Done:  E(RwB97XD) =  -977.687468937     A.U. after   11 cycles
 Optimization completed.
    -- Stationary point found.
 Normal termination of Gaussian 09 at Sat Oct 17 03:21:46 2015.

 ----------------------------------------------------------------------
 #N Geom=AllCheck Guess=TCheck SCRF=Check GenChk RwB97XD/6-311++G(d,p)
 Freq
 ----------------------------------------------------------------------

 Structure from the checkpoint file:  paramethoxy_opt.chk
 ------------------------------------------------
 paramethoxy substituent S1 geometry optimization
 ------------------------------------------------
 Charge =  0 Multiplicity = 1

                         Standard orientation:
 ---------------------------------------------------------------------
 Center     Atomic      Atomic             Coordinates (Angstroms)
 Number     Number       Type             X           Y           Z
 ---------------------------------------------------------------------
      1          6           0        4.322663    1.473760    0.016971
      2          6           0        3.120389    0.800744    0.050876
      3          6           0        3.070546   -0.610686    0.001472
      4          6           0        4.279526   -1.329026   -0.070817
      5          6           0        5.494256   -0.628097   -0.115629
      6          1           0        6.411586   -1.200668   -0.179053
      7          6           0        5.516915    0.743901   -0.073164
      8          1           0        6.454595    1.286592   -0.103101
      9          6           0        1.792162   -1.355292    0.024350
     10          6           0        0.510027   -0.633629   -0.027133
     11          1           0        0.512401    0.439602   -0.159580
     12          6           0       -0.645442   -1.311738    0.069513
     13          1           0       -0.558980   -2.389650    0.191025
     14          6           0       -1.998838   -0.781607    0.028976
     15          6           0       -3.080767   -1.663220    0.125305
     16          1           0       -2.886860   -2.725804    0.233953
     17          6           0       -4.391651   -1.227056    0.089878
     18          1           0       -5.184419   -1.957871    0.171488
     19          6           0       -4.690456    0.142723   -0.049335
     20          6           0       -7.077204   -0.339636    0.101331
     21          1           0       -7.040240   -0.813076    1.091176
     22          1           0       -7.069656   -1.128622   -0.657801
     23          1           0        3.416761   -2.988971   -0.031277
     24          8           0        1.802183   -2.591172    0.074756
     25          8           0        4.341549   -2.663587   -0.102368
     26          8           0        4.462874    2.828503    0.066070
     27          1           0        2.198247    1.356327    0.131484
     28          6           0       -2.300209    0.580574   -0.100396
     29          7           0       -5.986843    0.591360   -0.099492
     30          6           0       -3.600726    1.038091   -0.136469
     31          1           0       -8.023594    0.191641    0.014273
     32          6           0        3.294868    3.607542    0.162506
     33          1           0       -1.499556    1.308790   -0.171100
     34          6           0       -6.260371    2.012986   -0.114932
     35          1           0       -3.774057    2.101154   -0.234638
     36          1           0        2.638750    3.457606   -0.703774
     37          1           0        2.738618    3.384927    1.081377
     38          1           0        3.622824    4.645565    0.186651
     39          1           0       -5.819347    2.494038   -0.994237
     40          1           0       -7.336892    2.169683   -0.160579
     41          1           0       -5.879265    2.517268    0.782659
 ---------------------------------------------------------------------

 SCF Done:  E(RwB97XD) =  -977.687468937     A.U. after    2 cycles

 The electronic state is 1-A.
 Alpha  occ. eigenvalues --  -19.28005 -19.25601 -19.23290 -14.47042 -10.38004
 Alpha  occ. eigenvalues --  -10.35261 -10.34710 -10.34597 -10.33990 -10.32999
 Alpha  occ. eigenvalues --  -10.32923 -10.30912 -10.30233 -10.30069 -10.29842
 Alpha  occ. eigenvalues --  -10.29701 -10.29645 -10.29504 -10.29460 -10.29192
 Alpha  occ. eigenvalues --  -10.28697 -10.28642  -1.17671  -1.16696  -1.13574
 Alpha  occ. eigenvalues --   -1.07433  -0.97086  -0.96221  -0.90873  -0.87770
 Alpha  occ. eigenvalues --   -0.86769  -0.85309  -0.85016  -0.83834  -0.79998
 Alpha  occ. eigenvalues --   -0.78601  -0.75133  -0.72377  -0.71538  -0.69072
 Alpha  occ. eigenvalues --   -0.67860  -0.64872  -0.63180  -0.62691  -0.61710
 Alpha  occ. eigenvalues --   -0.59595  -0.58651  -0.58288  -0.57393  -0.56533
 Alpha  occ. eigenvalues --   -0.55333  -0.54885  -0.53745  -0.52616  -0.52454
 Alpha  occ. eigenvalues --   -0.52315  -0.51908  -0.51376  -0.51052  -0.49809
 Alpha  occ. eigenvalues --   -0.49536  -0.48298  -0.48137  -0.47363  -0.47227
 Alpha  occ. eigenvalues --   -0.46817  -0.45428  -0.45250  -0.43555  -0.42681
 Alpha  occ. eigenvalues --   -0.42372  -0.41058  -0.38679  -0.35066  -0.34503
 Alpha  occ. eigenvalues --   -0.34394  -0.33961  -0.28160  -0.27044
 Alpha virt. eigenvalues --   -0.02011   0.02740   0.03373   0.03563   0.04431
 Alpha virt. eigenvalues --    0.04720   0.05054   0.05636   0.06283   0.06321
 Alpha virt. eigenvalues --    0.06506   0.07403   0.07650   0.07910   0.08117

 Mulliken atomic charges:
              1
     1  C   -1.152636
     2  C    0.415946
     3  C    1.299186
     4  C   -0.423398
     5  C   -0.280587
     6  H    0.242845
     7  C   -0.188116
     8  H    0.244480
     9  C   -0.118998
    10  C    0.098148
    11  H   -0.136739
    12  C    0.066801
    13  H    0.235244
    14  C    1.015080
    15  C   -0.279340
    16  H    0.212586
    17  C   -0.307036
    18  H    0.186089
    19  C   -0.591912
    20  C   -0.396962
    21  H    0.180903
    22  H    0.168341
    23  H    0.359323
    24  O   -0.305245
    25  O   -0.300669
    26  O   -0.140505
    27  H    0.023099
    28  C   -0.623108
    29  N    0.052587
    30  C   -0.305512
    31  H    0.155095
    32  C   -0.421677
    33  H    0.123498
    34  C   -0.391021
    35  H    0.235505
    36  H    0.167498
    37  H    0.173560
    38  H    0.208687
    39  H    0.164914
    40  H    0.154690
    41  H    0.179357
 Sum of Mulliken atomic charges =   0.00000

 Dipole moment (field-independent basis, Debye):
    X=             -7.4151    Y=              4.5279    Z=              0.1793  Tot=              8.6901
 Quadrupole moment (field-independent basis, Debye-Ang):
   XX=           -102.2537   YY=           -126.7430   ZZ=           -136.5662
   XY=              5.2435   XZ=             -0.5929   YZ=             -0.6374

  Exact polarizability: 443.737 -13.790 246.939  -3.602  -2.248 129.859
 Approx polarizability: 363.007  -7.100 287.068  -3.263  -3.950 159.548

                     1                      2                      3
                     A                      A                      A
 Frequencies --    15.1282                21.6081                36.3785
 Red. masses --     4.4866                 3.4011                 5.0402
 Frc consts  --     0.0006                 0.0009                 0.0039
 IR Inten    --     0.0385                 0.1528                 0.0333

                     4                      5                      6
                     A                      A                      A
 Frequencies --    43.0223                70.3749                75.9462
 Red. masses --     4.0771                 3.3309                 2.6425
 Frc consts  --     0.0044                 0.0097                 0.0090
 IR Inten    --     2.4621                 1.0799                 0.3474

                     7                      8                      9
                     A                      A                      A
 Frequencies --    80.5022               103.3263               128.9796
 Red. masses --     3.0080                 3.5444                 4.5002
 Frc consts  --     0.0115                 0.0223                 0.0441
 IR Inten    --     7.3282                 1.3005                 0.2962

                    10                     11                     12
                     A                      A                      A
 Frequencies --   147.3462               162.5317               167.5396
 Red. masses --     4.5304                 2.1097                 2.9938
 Frc consts  --     0.0580                 0.0328                 0.0495
 IR Inten    --     1.0970                 0.1788                 1.7687

                    13                     14                     15
                     A                      A                      A
 Frequencies --   178.9851               211.3846               232.1189
 Red. masses --     5.5706                 2.1659                 1.4848
 Frc consts  --     0.1051                 0.0570                 0.0471
 IR Inten    --     0.3734                 0.6120                 0.6274

                    16                     17                     18
                     A                      A                      A
 Frequencies --   257.5278               261.6987               289.5604
 Red. masses --     1.5760                 1.4284                 3.1771
 Frc consts  --     0.0616                 0.0576                 0.1569
 IR Inten    --     0.3183                 1.5155                 3.8800

                    19                     20                     21
                     A                      A                      A
 Frequencies --   354.5000               379.0456               380.7609
 Red. masses --     5.6158                 5.1049                 4.3173
 Frc consts  --     0.4158                 0.4321                 0.3688
 IR Inten    --     5.1011                 0.2708                 2.2142

                    22                     23                     24
                     A                      A                      A
 Frequencies --   384.3561               426.0831               432.2052
 Red. masses --     3.9420                 4.9555                 2.9796
 Frc consts  --     0.3431                 0.5301                 0.3279
 IR Inten    --     7.1930                16.5734                 0.2010

                    25                     26                     27
                     A                      A                      A
 Frequencies --   442.6106               450.6435               474.5171
 Red. masses --     6.2246                 4.0578                 4.5497
 Frc consts  --     0.7185                 0.4855                 0.6036
 IR Inten    --     1.4253                 0.9406                10.7234

                    28                     29                     30
                     A                      A                      A
 Frequencies --   494.6820               524.6233               529.8575
 Red. masses --     4.1880                 2.9121                 3.0675
 Frc consts  --     0.6038                 0.4722                 0.5074
 IR Inten    --     3.5379                13.8953                11.5191

                    31                     32                     33
                     A                      A                      A
 Frequencies --   554.4563               560.6533               565.5345
 Red. masses --     3.6347                 3.2226                 3.8870
 Frc consts  --     0.6583                 0.5968                 0.7325
 IR Inten    --    15.0637                 6.1728                17.5293

                    34                     35                     36
                     A                      A                      A
 Frequencies --   657.4122               689.6379               696.8790
 Red. masses --     7.0012                 6.7720                 4.0940
 Frc consts  --     1.7828                 1.8976                 1.1714
 IR Inten    --     0.4733                46.4751                 2.9568

                    37                     38                     39
                     A                      A                      A
 Frequencies --   730.6982               736.8483               768.2786
 Red. masses --     5.0375                 2.9661                 3.1771
 Frc consts  --     1.5847                 0.9488                 1.1049
 IR Inten    --    22.7225                 4.8900                 5.3404

                    40                     41                     42
                     A                      A                      A
 Frequencies --   800.1531               812.1978               823.1627
 Red. masses --     5.6967                 1.1800                 1.4461
 Frc consts  --     2.1489                 0.4586                 0.5773
 IR Inten    --    41.0559                81.0265                 1.9700

                    43                     44                     45
                     A                      A                      A
 Frequencies --   823.9039               841.1455               851.5880
 Red. masses --     3.7548                 1.8444                 1.5806
 Frc consts  --     1.5017                 0.7689                 0.6753
 IR Inten    --    11.9274                82.1232                 5.5076

                    46                     47                     48
                     A                      A                      A
 Frequencies --   860.6682               885.3435               895.5463
 Red. masses --     1.7096                 1.9549                 5.0310
 Frc consts  --     0.7461                 0.9028                 2.3773
 IR Inten    --    27.1134                16.2005                 6.2692

                    49                     50                     51
                     A                      A                      A
 Frequencies --   965.9910               966.6675               983.7951
 Red. masses --     3.1137                 1.5590                 1.3344
 Frc consts  --     1.7119                 0.8583                 0.7609
 IR Inten    --    10.3901                 3.5490                 0.0549

                    52                     53                     54
                     A                      A                      A
 Frequencies --   984.4927               986.9823              1028.2173
 Red. masses --     1.3142                 3.0063                 2.8100
 Frc consts  --     0.7505                 1.7254                 1.7504
 IR Inten    --     0.1337                17.4256                28.0503

                    55                     56                     57
                     A                      A                      A
 Frequencies --  1040.3800              1047.8196              1097.4469
 Red. masses --     1.2581                 2.7381                 1.4500
 Frc consts  --     0.8023                 1.7712                 1.0289
 IR Inten    --    30.9241               152.5658                20.0379

                    58                     59                     60
                     A                      A                      A
 Frequencies --  1105.2633              1148.7372              1149.5977
 Red. masses --     5.0539                 1.2498                 1.3131
 Frc consts  --     3.6376                 0.9717                 1.0225
 IR Inten    --    33.7974                 4.9299                28.9349

                    61                     62                     63
                     A                      A                      A
 Frequencies --  1152.3081              1173.2478              1178.0442
 Red. masses --     1.2774                 1.4543                 1.2886
 Frc consts  --     0.9993                 1.1794                 1.0536
 IR Inten    --     0.4607                 5.0876                 1.6120

                    64                     65                     66
                     A                      A                      A
 Frequencies --  1201.0421              1210.6299              1220.3503
 Red. masses --     2.0467                 1.6214                 1.6199
 Frc consts  --     1.7395                 1.4001                 1.4214
 IR Inten    --   685.5077                24.1319                94.7858

                    67                     68                     69
                     A                      A                      A
 Frequencies --  1222.8498              1265.3272              1274.5933
 Red. masses --     1.3779                 1.7073                 1.4394
 Frc consts  --     1.2140                 1.6105                 1.3777
 IR Inten    --   325.1828                58.4452                39.2209

                    70                     71                     72
                     A                      A                      A
 Frequencies --  1292.4502              1294.4921              1319.0005
 Red. masses --     3.5396                 3.6920                 2.3491
 Frc consts  --     3.4836                 3.6451                 2.4079
 IR Inten    --    12.0945                83.4379               198.6613

                    73                     74                     75
                     A                      A                      A
 Frequencies --  1346.8574              1351.5504              1372.1992
 Red. masses --     2.2018                 2.0373                 1.8342
 Frc consts  --     2.3532                 2.1926                 2.0348
 IR Inten    --     8.3688                78.2059               149.7247

                    76                     77                     78
                     A                      A                      A
 Frequencies --  1385.4290              1408.6505              1417.9153
 Red. masses --     2.4199                 3.0340                 3.4636
 Frc consts  --     2.7367                 3.5471                 4.1028
 IR Inten    --    31.4519               357.0070               172.9681

                    79                     80                     81
                     A                      A                      A
 Frequencies --  1441.3259              1458.0070              1469.6143
 Red. masses --     1.9616                 1.2309                 1.8734
 Frc consts  --     2.4009                 1.5417                 2.3839
 IR Inten    --    76.7144                17.6505                20.9787

                    82                     83                     84
                     A                      A                      A
 Frequencies --  1485.4909              1489.3726              1492.3785
 Red. masses --     2.1820                 1.7539                 1.0422
 Frc consts  --     2.8369                 2.2922                 1.3676
 IR Inten    --   100.5836                32.6026                 2.1663

                    85                     86                     87
                     A                      A                      A
 Frequencies --  1498.5781              1500.0848              1502.4080
 Red. masses --     1.0730                 1.1446                 1.1286
 Frc consts  --     1.4197                 1.5175                 1.5009
 IR Inten    --    12.8006                14.2715                15.8308

                    88                     89                     90
                     A                      A                      A
 Frequencies --  1508.1898              1529.9569              1544.9817
 Red. masses --     1.1055                 1.1341                 1.1200
 Frc consts  --     1.4816                 1.5640                 1.5751
 IR Inten    --    74.4527                13.6997               156.9941

                    91                     92                     93
                     A                      A                      A
 Frequencies --  1545.9506              1585.1334              1621.3523
 Red. masses --     2.4099                 2.7810                 5.6358
 Frc consts  --     3.3934                 4.1170                 8.7290
 IR Inten    --   225.1409               581.8431                67.0641

                    94                     95                     96
                     A                      A                      A
 Frequencies --  1648.1190              1655.9231              1689.6989
 Red. masses --     6.3924                 4.0855                 6.1136
 Frc consts  --    10.2304                 6.6005                10.2840
 IR Inten    --  1040.1755               175.6965               218.6476

                    97                     98                     99
                     A                      A                      A
 Frequencies --  1701.0123              1731.6142              3011.3133
 Red. masses --     6.1749                 6.5674                 1.0423
 Frc consts  --    10.5267                11.6024                 5.5686
 IR Inten    --    19.2945               234.4649                83.1905

                   100                    101                    102
                     A                      A                      A
 Frequencies --  3012.6175              3018.3821              3075.1494
 Red. masses --     1.0352                 1.0453                 1.0982
 Frc consts  --     5.5358                 5.6111                 6.1190
 IR Inten    --    41.2690               100.0205                 8.0196

                   103                    104                    105
                     A                      A                      A
 Frequencies --  3075.4434              3076.1627              3152.1184
 Red. masses --     1.1058                 1.0997                 1.0984
 Frc consts  --     6.1621                 6.1310                 6.4303
 IR Inten    --    39.2094                63.0372                 2.4623

                   106                    107                    108
                     A                      A                      A
 Frequencies --  3156.9808              3163.7655              3173.7217
 Red. masses --     1.0990                 1.0959                 1.0886
 Frc consts  --     6.4532                 6.4631                 6.4603
 IR Inten    --    25.5716                38.1580                 0.4450

                   109                    110                    111
                     A                      A                      A
 Frequencies --  3192.5791              3198.6820              3211.4716
 Red. masses --     1.0901                 1.0892                 1.0884
 Frc consts  --     6.5463                 6.5658                 6.6137
 IR Inten    --     7.4340                 8.3398                 3.1212

                   112                    113                    114
                     A                      A                      A
 Frequencies --  3227.3355              3231.0985              3233.8171
 Red. masses --     1.0967                 1.0897                 1.0922
 Frc consts  --     6.7300                 6.7031                 6.7296
 IR Inten    --     5.8489                 2.2575                12.0407

                   115                    116                    117
                     A                      A                      A
 Frequencies --  3238.2934              3266.0785              3421.8272
 Red. masses --     1.0921                 1.0871                 1.0677
 Frc consts  --     6.7473                 6.8322                 7.3657
 IR Inten    --    13.1914                 8.2772               495.3098

 - Thermochemistry -
 -------------------
 Temperature   298.150 Kelvin.  Pressure   1.00000 Atm.
 Atom     1 has atomic number  6 and mass  12.00000

 Molecular mass:   297.13649 amu.
 Principal axes and moments of inertia in atomic units:
                           1         2         3
     Eigenvalues --  3082.35679********************
           X            1.00000   0.00095  -0.00025
           Y           -0.00095   1.00000  -0.00088
           Z            0.00025   0.00088   1.00000
 This molecule is an asymmetric top.
 Rotational symmetry number  1.
 Warning -- assumption of classical behavior for rotation
           may cause significant error
 Rotational temperatures (Kelvin)      0.02810     0.00469     0.00403
 Rotational constants (GHZ):           0.58551     0.09768     0.08392
 Zero-point vibrational energy     886075.8 (Joules/Mol)
                                  211.77720 (Kcal/Mol)
 Warning -- explicit consideration of  33 degrees of freedom as
           vibrations may cause significant error
 Vibrational temperatures:     21.77    31.09    52.34    61.90   101.25
          (Kelvin)            109.27   115.82   148.66   185.57   212.00
                              233.85   241.05   257.52   304.13   333.97
                              370.52   376.53   416.61   510.05   545.36
                              547.83   553.00   613.04   621.85   636.82
                              648.37   682.72   711.74   754.81   762.35
                              797.74   806.65   813.68   945.87   992.23
                             1002.65  1051.31  1060.16  1105.38  1151.24
                             1168.57  1184.35  1185.41  1210.22  1225.24
                             1238.31  1273.81  1288.49  1389.84  1390.82
                             1415.46  1416.46  1420.05  1479.37  1496.87
                             1507.58  1578.98  1590.23  1652.77  1654.01
                             1657.91  1688.04  1694.94  1728.03  1741.82
                             1755.81  1759.41  1820.52  1833.85  1859.55
                             1862.48  1897.75  1937.82  1944.58  1974.29
                             1993.32  2026.73  2040.06  2073.74  2097.74
                             2114.44  2137.29  2142.87  2147.20  2156.12
                             2158.28  2161.63  2169.95  2201.26  2222.88
                             2224.28  2280.65  2332.76  2371.27  2382.50
                             2431.10  2447.37  2491.40  4332.60  4334.48
                             4342.77  4424.45  4424.87  4425.91  4535.19
                             4542.19  4551.95  4566.27  4593.40  4602.18
                             4620.59  4643.41  4648.82  4652.74  4659.18
                             4699.15  4923.24

 Zero-point correction=                           0.337488 (Hartree/Particle)
 Thermal correction to Energy=                    0.358328
 Thermal correction to Enthalpy=                  0.359272
 Thermal correction to Gibbs Free Energy=         0.284884
 Sum of electronic and zero-point Energies=           -977.349980
 Sum of electronic and thermal Energies=              -977.329141
 Sum of electronic and thermal Enthalpies=            -977.328196
 Sum of electronic and thermal Free Energies=         -977.402584

                     E (Thermal)             CV                S
                      KCal/Mol        Cal/Mol-Kelvin    Cal/Mol-Kelvin
 Total                  224.854             78.296            156.563
 Electronic               0.000              0.000              0.000
 Translational            0.889              2.981             42.964
 Rotational               0.889              2.981             35.459
 Vibrational            223.077             72.335             78.140
 Vibration     1          0.593              1.986              7.189
 Vibration     2          0.593              1.985              6.481
 Vibration     3          0.594              1.982              5.447
 Vibration     4          0.595              1.980              5.115
 Vibration     5          0.598              1.968              4.143
 Vibration     6          0.599              1.965              3.993
 Vibration     7          0.600              1.962              3.879
 Vibration     8          0.605              1.947              3.391
 Vibration     9          0.611              1.924              2.961
 Vibration    10          0.617              1.906              2.706
 Vibration    11          0.623              1.888              2.520
 Vibration    12          0.624              1.882              2.463
 Vibration    13          0.629              1.868              2.339
 Vibration    14          0.643              1.823              2.032
 Vibration    15          0.653              1.792              1.863
 Vibration    16          0.667              1.750              1.678
 Vibration    17          0.669              1.743              1.650
 Vibration    18          0.686              1.693              1.477
 Vibration    19          0.730              1.566              1.146
 Vibration    20          0.749              1.515              1.043
 Vibration    21          0.750              1.511              1.036
 Vibration    22          0.753              1.504              1.022
 Vibration    23          0.788              1.413              0.872
 Vibration    24          0.793              1.400              0.851
 Vibration    25          0.802              1.377              0.818
 Vibration    26          0.809              1.359              0.794
 Vibration    27          0.831              1.307              0.725
 Vibration    28          0.850              1.262              0.672
 Vibration    29          0.880              1.195              0.599
 Vibration    30          0.885              1.184              0.588
 Vibration    31          0.910              1.130              0.535
 Vibration    32          0.916              1.116              0.523
 Vibration    33          0.921              1.106              0.513

 Normal termination of Gaussian 09 at Sat Oct 17 12:28:20 2015.
