 Gaussian 09, Revision C.01,
 Gaussian 09:  EM64L-G09RevC.01 23-Sep-2011

 -------------------------------------------
 #wb97xd opt 6-311++g** td(nstates=1,root=1)
 -------------------------------------------

 99//99;
 ----------------------------------------------------------
 paramethoxy substituent keto form S1 geometry optimization
 ----------------------------------------------------------
 Charge =  0 Multiplicity = 1

 SCF Done:  E(RwB97XD) =  -977.324349638     A.U. after   17 cycles
 SCF Done:  E(RwB97XD) =  -977.483565603     A.U. after   15 cycles
 SCF Done:  E(RwB97XD) =  -977.641685818     A.U. after   15 cycles
 SCF Done:  E(RwB97XD) =  -977.659650462     A.U. after   16 cycles
 SCF Done:  E(RwB97XD) =  -977.647059513     A.U. after   18 cycles
 SCF Done:  E(RwB97XD) =  -977.660116650     A.U. after   17 cycles
 SCF Done:  E(RwB97XD) =  -977.661683893     A.U. after   15 cycles
 SCF Done:  E(RwB97XD) =  -977.662131494     A.U. after   14 cycles
 SCF Done:  E(RwB97XD) =  -977.662536219     A.U. after   13 cycles
 SCF Done:  E(RwB97XD) =  -977.662766525     A.U. after   13 cycles
 SCF Done:  E(RwB97XD) =  -977.654450971     A.U. after   13 cycles
 SCF Done:  E(RwB97XD) =  -977.654432599     A.U. after   13 cycles
 SCF Done:  E(RwB97XD) =  -977.654362626     A.U. after   12 cycles
 SCF Done:  E(RwB97XD) =  -977.654333552     A.U. after   12 cycles
 SCF Done:  E(RwB97XD) =  -977.654304149     A.U. after   11 cycles
 SCF Done:  E(RwB97XD) =  -977.654281651     A.U. after   11 cycles
 SCF Done:  E(RwB97XD) =  -977.654268052     A.U. after   11 cycles
 SCF Done:  E(RwB97XD) =  -977.654276165     A.U. after   12 cycles
 SCF Done:  E(RwB97XD) =  -977.654309112     A.U. after   13 cycles
 SCF Done:  E(RwB97XD) =  -977.654352803     A.U. after   12 cycles

 Excitation energies and oscillator strengths:

 Excited State   1:      Singlet-A      2.1508 eV  576.44 nm  f=0.4672  <S**2>=0.000
      79 -> 80        -0.68781
 This state for optimization and/or second-order correction.
 Total Energy, E(TD-HF/TD-KS) =  -977.575310631
 Copying the excited state density for this state as the 1-particle RhoCI density.

 Optimization completed.
    -- Stationary point found.

                         Standard orientation:
 ---------------------------------------------------------------------
 Center     Atomic      Atomic             Coordinates (Angstroms)
 Number     Number       Type             X           Y           Z
 ---------------------------------------------------------------------
      1          6           0        4.387283    1.435103    0.031932
      2          6           0        3.156357    0.770835    0.235271
      3          6           0        3.036166   -0.583037    0.000392
      4          6           0        4.202233   -1.364478   -0.362112
      5          6           0        5.425664   -0.653683   -0.548309
      6          1           0        6.287991   -1.232763   -0.857805
      7          6           0        5.515930    0.709580   -0.370139
      8          1           0        6.448111    1.240130   -0.521663
      9          6           0        1.758831   -1.294111    0.185672
     10          6           0        0.509629   -0.680918    0.042985
     11          1           0        0.508882    0.363092   -0.245894
     12          6           0       -0.678093   -1.348103    0.244608
     13          1           0       -0.609116   -2.395114    0.525846
     14          6           0       -1.998855   -0.806248    0.122327
     15          6           0       -3.113804   -1.622401    0.397169
     16          1           0       -2.945708   -2.651538    0.698852
     17          6           0       -4.408508   -1.162360    0.297397
     18          1           0       -5.219002   -1.841020    0.526416
     19          6           0       -4.677197    0.166267   -0.097374
     20          6           0       -7.072106   -0.204487    0.194281
     21          1           0       -7.020176   -0.455639    1.262001
     22          1           0       -7.105380   -1.137990   -0.377110
     23          8           0        1.829622   -2.574613    0.489219
     24          8           0        4.120754   -2.625798   -0.492144
     25          8           0        4.558741    2.757199    0.208943
     26          1           0        2.298309    1.325346    0.592642
     27          6           0       -2.277055    0.521725   -0.259026
     28          7           0       -5.964129    0.628701   -0.223048
     29          6           0       -3.565855    0.997295   -0.364875
     30          1           0       -8.006703    0.324791    0.015225
     31          6           0        3.460247    3.553654    0.609338
     32          1           0       -1.463029    1.202289   -0.482711
     33          6           0       -6.205594    2.022003   -0.530555
     34          1           0       -3.714425    2.027796   -0.658575
     35          1           0        2.659405    3.525720   -0.136887
     36          1           0        3.070780    3.235079    1.581808
     37          1           0        3.844449    4.568402    0.690063
     38          1           0       -5.737654    2.303768   -1.479353
     39          1           0       -7.277355    2.185609   -0.632033
     40          1           0       -5.828787    2.693688    0.252667
     41          1           0        2.753742   -2.876672    0.185799
 ---------------------------------------------------------------------

 The electronic state is 1-A.
 Alpha  occ. eigenvalues --  -19.27721 -19.27182 -19.18810 -14.48355 -10.39112
 Alpha  occ. eigenvalues --  -10.36116 -10.33870 -10.33829 -10.33578 -10.33517
 Alpha  occ. eigenvalues --  -10.33498 -10.33129 -10.31592 -10.31477 -10.31032
 Alpha  occ. eigenvalues --  -10.30627 -10.30389 -10.30111 -10.28628 -10.28517
 Alpha  occ. eigenvalues --  -10.28450 -10.26898  -1.18193  -1.17129  -1.08955
 Alpha  occ. eigenvalues --   -1.08595  -0.98339  -0.94516  -0.92459  -0.88460
 Alpha  occ. eigenvalues --   -0.87919  -0.85641  -0.84844  -0.83203  -0.80814
 Alpha  occ. eigenvalues --   -0.77982  -0.75066  -0.72972  -0.71599  -0.69181
 Alpha  occ. eigenvalues --   -0.68191  -0.66300  -0.64619  -0.63090  -0.60900
 Alpha  occ. eigenvalues --   -0.59472  -0.58748  -0.58387  -0.57605  -0.56347
 Alpha  occ. eigenvalues --   -0.55957  -0.55375  -0.53868  -0.53453  -0.52772
 Alpha  occ. eigenvalues --   -0.52330  -0.51940  -0.51225  -0.50971  -0.50283
 Alpha  occ. eigenvalues --   -0.49281  -0.49061  -0.48860  -0.47645  -0.47190
 Alpha  occ. eigenvalues --   -0.46543  -0.44867  -0.44366  -0.43625  -0.43144
 Alpha  occ. eigenvalues --   -0.42304  -0.40979  -0.37306  -0.35981  -0.35745
 Alpha  occ. eigenvalues --   -0.33352  -0.31715  -0.28809  -0.23909
 Alpha virt. eigenvalues --   -0.04823   0.02270   0.03161   0.03403   0.03953
 Alpha virt. eigenvalues --    0.04053   0.04834   0.05690   0.05837   0.06171
 Alpha virt. eigenvalues --    0.06476   0.07106   0.07479   0.07783   0.08229

 Mulliken atomic charges:
              1
     1  C   -0.794325
     2  C    0.175991
     3  C    1.570767
     4  C   -0.978766
     5  C   -0.072971
     6  H    0.232543
     7  C   -0.261399
     8  H    0.238752
     9  C   -0.451878
    10  C    0.057212
    11  H   -0.025496
    12  C    0.350271
    13  H    0.230070
    14  C    1.194022
    15  C   -0.163290
    16  H    0.217269
    17  C   -0.230995
    18  H    0.194549
    19  C   -0.756827
    20  C   -0.400593
    21  H    0.185881
    22  H    0.170578
    23  O   -0.234503
    24  O   -0.412073
    25  O   -0.124603
    26  H    0.116398
    27  C   -0.851338
    28  N    0.061575
    29  C   -0.373688
    30  H    0.156217
    31  C   -0.406934
    32  H    0.111467
    33  C   -0.399115
    34  H    0.241828
    35  H    0.164354
    36  H    0.166067
    37  H    0.203732
    38  H    0.166818
    39  H    0.159941
    40  H    0.185581
    41  H    0.386906
 Sum of Mulliken atomic charges =   0.00000

 Dipole moment (field-independent basis, Debye):
    X=            -11.2092    Y=              5.0809    Z=              0.8336  Tot=             12.3352
 Quadrupole moment (field-independent basis, Debye-Ang):
   XX=           -107.6633   YY=           -129.3543   ZZ=           -135.7206
   XY=              9.9226   XZ=              2.3786   YZ=             -3.2005

 Normal termination of Gaussian 09 at Fri Oct 30 13:40:10 2015.
