 Gaussian 09, Revision D.01,
 Gaussian 09:  ES64L-G09RevD.01 24-Apr-2013

 ----------------------------------------------------------------------
 # wb97xd 6-311++g** opt=modredundant td=(nstates=1,root=1) SCRF=(PCM,s
 olvent=dichloromethane)
 ----------------------------------------------------------------------

 -----
 title
 -----
 Symbolic Z-matrix:
 Charge =  0 Multiplicity = 1

 SCF Done:  E(RwB97XD) =  -632.146285928     A.U. after   17 cycles
 SCF Done:  E(RwB97XD) =  -632.146275801     A.U. after   11 cycles
 SCF Done:  E(RwB97XD) =  -632.146290092     A.U. after   11 cycles
 SCF Done:  E(RwB97XD) =  -632.146291292     A.U. after    8 cycles
 Optimization completed.
    -- Stationary point found.
 SCF Done:  E(RwB97XD) =  -632.139966955     A.U. after   19 cycles
 SCF Done:  E(RwB97XD) =  -632.143030351     A.U. after   16 cycles
 SCF Done:  E(RwB97XD) =  -632.142008449     A.U. after   16 cycles
 SCF Done:  E(RwB97XD) =  -632.143543968     A.U. after   16 cycles
 SCF Done:  E(RwB97XD) =  -632.143147663     A.U. after   14 cycles
 SCF Done:  E(RwB97XD) =  -632.143321976     A.U. after   13 cycles
 Optimization completed.
 SCF Done:  E(RwB97XD) =  -632.122842350     A.U. after   13 cycles
 SCF Done:  E(RwB97XD) =  -632.122843501     A.U. after   12 cycles
 SCF Done:  E(RwB97XD) =  -632.122846192     A.U. after   11 cycles
    -- Stationary point found.
 SCF Done:  E(RwB97XD) =  -632.119698396     A.U. after   18 cycles
 SCF Done:  E(RwB97XD) =  -632.122716621     A.U. after   16 cycles
 SCF Done:  E(RwB97XD) =  -632.123106448     A.U. after   16 cycles
 SCF Done:  E(RwB97XD) =  -632.123352864     A.U. after   15 cycles
 SCF Done:  E(RwB97XD) =  -632.123469327     A.U. after   14 cycles
 SCF Done:  E(RwB97XD) =  -632.123508783     A.U. after   13 cycles
 SCF Done:  E(RwB97XD) =  -632.123511863     A.U. after   10 cycles

 Excitation energies and oscillator strengths:

 Excited State   1:      Singlet-A      2.5872 eV  479.21 nm  f=0.5862  <S**2>=0.000
      51 -> 52        -0.69471
 This state for optimization and/or second-order correction.
 Total Energy, E(TD-HF/TD-KS) =  -632.028432334
 Copying the excited state density for this state as the 1-particle RhoCI density.

 Optimization completed.
    -- Stationary point found.

                         Standard orientation:
 ---------------------------------------------------------------------
 Center     Atomic      Atomic             Coordinates (Angstroms)
 Number     Number       Type             X           Y           Z
 ---------------------------------------------------------------------
      1          6           0       -3.452928    1.601297    0.138873
      2          1           0       -4.469721    1.989082    0.105768
      3          1           0       -2.988591    1.908066    1.082971
      4          6           0       -4.788313   -0.489600    0.106973
      5          1           0       -5.248120   -0.311215    1.085132
      6          7           0       -3.492499    0.156601    0.024632
      7          1           0       -2.884300    2.039236   -0.686562
      8          1           0       -4.673066   -1.563222   -0.035271
      9          1           0       -5.456073   -0.101443   -0.667181
     10          6           0       -2.363404   -0.564640   -0.040457
     11          1           0       -2.500219   -1.637473   -0.105656
     12          6           0       -1.082316   -0.029402   -0.038105
     13          6           0        0.064712   -0.826327   -0.138037
     14          1           0       -0.919056    1.034316    0.044547
     15          8           0       -0.164949   -2.173454   -0.111261
     16          6           0        1.433138   -0.368156   -0.080324
     17          6           0        1.790743    1.075636   -0.103253
     18          6           0        2.476746   -1.284040    0.085092
     19          8           0        0.926646    1.969659   -0.262767
     20          6           0        3.177032    1.415540    0.036343
     21          6           0        3.819851   -0.891745    0.179054
     22          1           0        2.270389   -2.343844    0.183290
     23          1           0        0.537181   -2.648804   -0.561794
     24          1           0        3.412155    2.474276    0.016046
     25          6           0        4.171176    0.460268    0.158365
     26          1           0        4.583895   -1.652784    0.287803
     27          1           0        5.210814    0.754960    0.243568
 ---------------------------------------------------------------------

 The electronic state is 1-A.
 Alpha  occ. eigenvalues --  -19.30213 -19.18657 -14.50796 -10.39648 -10.36731
 Alpha  occ. eigenvalues --  -10.34539 -10.33062 -10.32701 -10.29941 -10.29342
 Alpha  occ. eigenvalues --  -10.29239 -10.28484 -10.27698 -10.27082  -1.19306
 Alpha  occ. eigenvalues --   -1.09639  -1.09549  -0.94480  -0.91460  -0.86857
 Alpha  occ. eigenvalues --   -0.84796  -0.82874  -0.80561  -0.74158  -0.70230
 Alpha  occ. eigenvalues --   -0.68164  -0.67756  -0.63092  -0.62132  -0.59694
 Alpha  occ. eigenvalues --   -0.58216  -0.56612  -0.55042  -0.53804  -0.53004
 Alpha  occ. eigenvalues --   -0.52454  -0.50708  -0.50596  -0.49359  -0.48628
 Alpha  occ. eigenvalues --   -0.47979  -0.47436  -0.46209  -0.44364  -0.43338
 Alpha  occ. eigenvalues --   -0.42717  -0.40590  -0.35988  -0.31443  -0.31101
 Alpha  occ. eigenvalues --   -0.26004
 Alpha virt. eigenvalues --   -0.03168   0.03847   0.04543   0.05303   0.05981
 Alpha virt. eigenvalues --    0.06239   0.06410   0.07077   0.07807   0.07891
 Alpha virt. eigenvalues --    0.08344   0.08935   0.09425   0.09730   0.09985

 Mulliken charges:
               1
     1  C   -0.490238
     2  H    0.221009
     3  H    0.215993
     4  C   -0.353426
     5  H    0.212104
     6  N    0.142646
     7  H    0.211768
     8  H    0.166671
     9  H    0.200737
    10  C    0.047490
    11  H    0.257954
    12  C   -0.200721
    13  C   -0.251247
    14  H    0.198987
    15  O   -0.217791
    16  C    1.270133
    17  C   -1.115512
    18  C    0.063767
    19  O   -0.466742
    20  C   -0.360607
    21  C   -0.560316
    22  H    0.141479
    23  H    0.314170
    24  H    0.219302
    25  C   -0.315530
    26  H    0.219573
    27  H    0.228346
 Sum of Mulliken charges =   0.00000

 Dipole moment (field-independent basis, Debye):
    X=             -9.3321    Y=             -5.2590    Z=              0.1530  Tot=             10.7130
 Quadrupole moment (field-independent basis, Debye-Ang):
   XX=            -46.6032   YY=            -82.7789   ZZ=            -87.4341
   XY=             -7.5838   XZ=             -0.5051   YZ=              4.1883

 Normal termination of Gaussian 09 at Tue Nov 22 22:38:53 2016.
