 Gaussian 09, Revision D.01,
 Gaussian 09:  ES64L-G09RevD.01 24-Apr-2013

 ----------------------------------------------------------
 # wb97xd 6-311++g** opt=modredundant td=(nstates=1,root=1)
 ----------------------------------------------------------

 -----------
 Geom Opt s0
 -----------
 Symbolic Z-matrix:
 Charge =  0 Multiplicity = 1

 SCF Done:  E(RwB97XD) =  -731.296058164     A.U. after   23 cycles
 Optimization completed.
    -- Stationary point found.
 SCF Done:  E(RwB97XD) =  -731.293493715     A.U. after   20 cycles
 SCF Done:  E(RwB97XD) =  -731.297767476     A.U. after   19 cycles
 SCF Done:  E(RwB97XD) =  -731.292674732     A.U. after   20 cycles
 SCF Done:  E(RwB97XD) =  -731.293838902     A.U. after   19 cycles
 SCF Done:  E(RwB97XD) =  -731.293017791     A.U. after   16 cycles
 SCF Done:  E(RwB97XD) =  -731.287592906     A.U. after   20 cycles
 SCF Done:  E(RwB97XD) =  -731.283980320     A.U. after   20 cycles
 SCF Done:  E(RwB97XD) =  -731.276846853     A.U. after   23 cycles
 SCF Done:  E(RwB97XD) =  -731.281338998     A.U. after   18 cycles
 Optimization completed.
    -- Stationary point found.
 SCF Done:  E(RwB97XD) =  -731.339786293     A.U. after   15 cycles
 SCF Done:  E(RwB97XD) =  -731.339098207     A.U. after   18 cycles
 SCF Done:  E(RwB97XD) =  -731.339932568     A.U. after   14 cycles
 SCF Done:  E(RwB97XD) =  -731.339885796     A.U. after   14 cycles
 SCF Done:  E(RwB97XD) =  -731.339341660     A.U. after   15 cycles
 SCF Done:  E(RwB97XD) =  -731.339361267     A.U. after   15 cycles
 SCF Done:  E(RwB97XD) =  -731.339077587     A.U. after   14 cycles
 SCF Done:  E(RwB97XD) =  -731.338952931     A.U. after   14 cycles
 SCF Done:  E(RwB97XD) =  -731.338945174     A.U. after   12 cycles
 SCF Done:  E(RwB97XD) =  -731.338952692     A.U. after   12 cycles

 Excitation energies and oscillator strengths:

 Excited State   1:      Singlet-A      2.3237 eV  533.56 nm  f=0.2603  <S**2>=0.000
      54 -> 56        -0.11698
      55 -> 56         0.69125
 This state for optimization and/or second-order correction.
 Total Energy, E(TD-HF/TD-KS) =  -731.253557870
 Copying the excited state density for this state as the 1-particle RhoCI density.

 Optimization completed.
    -- Stationary point found.

                         Standard orientation:
 ---------------------------------------------------------------------
 Center     Atomic      Atomic             Coordinates (Angstroms)
 Number     Number       Type             X           Y           Z
 ---------------------------------------------------------------------
      1          6           0       -3.835695   -1.431206    0.315688
      2          1           0       -4.846894   -1.802484    0.146967
      3          1           0       -3.155765   -1.934985   -0.374984
      4          6           0       -5.064212    0.715010    0.249589
      5          1           0       -5.819894    0.310802   -0.429993
      6          7           0       -3.814292    0.001059    0.093303
      7          1           0       -3.534808   -1.679805    1.341407
      8          1           0       -4.917542    1.769893    0.018178
      9          1           0       -5.440510    0.633516    1.276930
     10          6           0       -2.649358    0.663095   -0.022075
     11          1           0       -2.736300    1.733447   -0.173373
     12          6           0       -1.401374    0.066914    0.024149
     13          6           0       -0.227558    0.736940   -0.282968
     14          1           0       -1.277610   -0.981016    0.266382
     15          8           0       -0.321334    2.047545   -0.618667
     16          6           0        1.107758    0.160963   -0.156326
     17          6           0        1.312066   -1.295710   -0.231465
     18          6           0        2.181702    0.974831    0.154366
     19          8           0        0.344918   -2.082497   -0.402903
     20          6           0        2.652285   -1.756734   -0.104531
     21          6           0        3.479527    0.442213    0.246653
     22          1           0        2.056714    2.031445    0.370757
     23          1           0        0.499812    2.335285   -1.026802
     24          1           0        2.808808   -2.822749   -0.219538
     25          6           0        3.734268   -0.902327    0.112421
     26          9           0        4.487829    1.301077    0.478279
     27          1           0        4.748442   -1.274778    0.185980
 ---------------------------------------------------------------------

 The electronic state is 1-A.
 Alpha  occ. eigenvalues --  -24.79930 -19.31180 -19.16449 -14.51601 -10.39638
 Alpha  occ. eigenvalues --  -10.37490 -10.35416 -10.34917 -10.34200 -10.32810
 Alpha  occ. eigenvalues --  -10.29197 -10.28814 -10.28667 -10.28663 -10.26620
 Alpha  occ. eigenvalues --   -1.31609  -1.20363  -1.10801  -1.07290  -0.94368
 Alpha  occ. eigenvalues --   -0.92157  -0.87085  -0.86413  -0.83469  -0.80052
 Alpha  occ. eigenvalues --   -0.74955  -0.71194  -0.68998  -0.68015  -0.64692
 Alpha  occ. eigenvalues --   -0.63459  -0.61727  -0.59920  -0.57513  -0.57171
 Alpha  occ. eigenvalues --   -0.55148  -0.54546  -0.54065  -0.53072  -0.52503
 Alpha  occ. eigenvalues --   -0.52277  -0.50668  -0.50083  -0.48951  -0.48303
 Alpha  occ. eigenvalues --   -0.47189  -0.45901  -0.44391  -0.43819  -0.42484
 Alpha  occ. eigenvalues --   -0.38220  -0.35558  -0.31564  -0.29250  -0.24083
 Alpha virt. eigenvalues --   -0.03390   0.02302   0.04060   0.04765   0.05367
 Alpha virt. eigenvalues --    0.06105   0.06276   0.06636   0.07593   0.07684
 Alpha virt. eigenvalues --    0.08102   0.08589   0.09251   0.10125   0.10677

 Mulliken charges:
               1
     1  C   -0.488681
     2  H    0.182384
     3  H    0.227804
     4  C   -0.346548
     5  H    0.181933
     6  N    0.147099
     7  H    0.215380
     8  H    0.146866
     9  H    0.195055
    10  C   -0.155029
    11  H    0.222867
    12  C   -0.453884
    13  C   -0.108118
    14  H    0.178816
    15  O   -0.182236
    16  C    1.832436
    17  C   -1.388580
    18  C   -0.457309
    19  O   -0.384238
    20  C    0.227872
    21  C   -0.573387
    22  H    0.204128
    23  H    0.291757
    24  H    0.231915
    25  C   -0.026074
    26  F   -0.164557
    27  H    0.242330
 Sum of Mulliken charges =   0.00000

 Dipole moment (field-independent basis, Debye):
    X=             -8.0899    Y=              3.1722    Z=              0.3971  Tot=              8.6987
 Quadrupole moment (field-independent basis, Debye-Ang):
   XX=            -62.2869   YY=            -89.8308   ZZ=            -89.9691
   XY=             -3.6679   XZ=             -4.1128   YZ=             -4.5739

 Normal termination of Gaussian 09 at Thu Dec 22 18:39:06 2016.
