 Gaussian 09, Revision D.01,
 Gaussian 09:  ES64L-G09RevD.01 24-Apr-2013

 ------------------------------------------
 #p wb97xd 6-311++G** td=(nstates=4) nosymm
 ------------------------------------------

 -----
 Title
 -----
 Symbolic Z-matrix:
 Charge =  0 Multiplicity = 1

                          Input orientation:
 ---------------------------------------------------------------------
 Center     Atomic      Atomic             Coordinates (Angstroms)
 Number     Number       Type             X           Y           Z
 ---------------------------------------------------------------------
      1          6           0       -0.125143   -5.357144   -1.985949
      2          1           0       -0.527970   -4.338587   -1.872346
      3          1           0       -0.078757   -5.592973   -3.053307
      4          1           0        0.901309   -5.377715   -1.583273
      5          7           0       -0.969395   -6.334147   -1.315450
      6          6           0       -1.548169   -7.426475   -2.081782
      7          6           0       -1.162899   -6.267018    0.026685
      8          1           0       -1.112251   -8.398030   -1.797378
      9          1           0       -1.357464   -7.260637   -3.146910
     10          1           0       -2.637604   -7.469095   -1.932311
     11          6           0       -0.613448   -5.200221    0.796547
     12          6           0       -1.919540   -7.251077    0.721737
     13          6           0       -0.802158   -5.131367    2.157696
     14          1           0       -0.030978   -4.423285    0.307054
     15          1           0       -2.366223   -8.082073    0.181246
     16          6           0       -2.095476   -7.164898    2.086614
     17          6           0       -1.538425   -6.116474    2.856877
     18          1           0       -0.356477   -4.300802    2.704675
     19          1           0       -2.670615   -7.933390    2.604025
     20          6           0       -1.713370   -6.118159    4.273876
     21          6           0       -1.170938   -5.244528    5.174949
     22          1           0       -2.341859   -6.916192    4.679413
     23          6           0       -1.412104   -5.374186    6.588987
     24          1           0       -0.522910   -4.442175    4.829834
     25          6           0       -0.834666   -4.414747    7.540241
     26          8           0       -2.145271   -6.327694    7.041236
     27          6           0       -0.041568   -3.316385    7.151187
     28          6           0       -1.104932   -4.568739    8.934077
     29          1           0       -2.118704   -6.098184    8.506729
     30          6           0        0.442707   -2.407864    8.075713
     31          1           0        0.197759   -3.153208    6.101743
     32          8           0       -1.860380   -5.592924    9.381092
     33          6           0       -0.610224   -3.642246    9.856960
     34          6           0        0.149299   -2.550179    9.445643
     35          1           0        1.058887   -1.573371    7.742052
     36          1           0       -0.836367   -3.799543   10.911980
     37          6           0        0.630853   -1.539727   10.444646
     38          1           0        1.117354   -0.686698    9.954941
     39          1           0        1.348321   -1.983249   11.153018
     40          1           0       -0.210664   -1.151986   11.039504
 ---------------------------------------------------------------------

 SCF Done:  E(RwB97XD) =  -902.479874052     A.U. after   17 cycles

 Excitation energies and oscillator strengths:

 Excited state symmetry could not be determined.
 Excited State   1:      Singlet-?Sym    3.3672 eV  368.22 nm  f=1.2622  <S**2>=0.000
      70 -> 76        -0.10318
      74 -> 76        -0.13934
      74 -> 78        -0.12139
      75 -> 76         0.65975
 This state for optimization and/or second-order correction.
 Total Energy, E(TD-HF/TD-KS) =  -902.356133467
 Copying the excited state density for this state as the 1-particle RhoCI density.

 Excited state symmetry could not be determined.
 Excited State   2:      Singlet-?Sym    3.8291 eV  323.79 nm  f=0.0001  <S**2>=0.000
      72 -> 76         0.66368
      72 -> 78         0.12933

 Excited state symmetry could not be determined.
 Excited State   3:      Singlet-?Sym    3.9288 eV  315.57 nm  f=0.0212  <S**2>=0.000
      74 -> 76         0.62946
      74 -> 78         0.18239
      75 -> 76         0.13912
      75 -> 78        -0.14333

 Excited state symmetry could not be determined.
 Excited State   4:      Singlet-?Sym    4.4844 eV  276.48 nm  f=0.0524  <S**2>=0.000
      71 -> 76         0.26196
      71 -> 78        -0.12380
      74 -> 81         0.11463
      75 -> 78         0.26801
      75 -> 81         0.54488

 Alpha  occ. eigenvalues --  -19.24150 -19.22971 -14.47766 -10.37872 -10.35379
 Alpha  occ. eigenvalues --  -10.35213 -10.33668 -10.33598 -10.31385 -10.30688
 Alpha  occ. eigenvalues --  -10.30684 -10.30611 -10.29980 -10.29877 -10.29852
 Alpha  occ. eigenvalues --  -10.29664 -10.29326 -10.28736 -10.28327 -10.28085
 Alpha  occ. eigenvalues --  -10.27622  -1.14668  -1.10849  -1.08061  -0.97052
 Alpha  occ. eigenvalues --   -0.95936  -0.90980  -0.88587  -0.87042  -0.85267
 Alpha  occ. eigenvalues --   -0.84123  -0.83602  -0.80906  -0.78504  -0.73256
 Alpha  occ. eigenvalues --   -0.71740  -0.70716  -0.69060  -0.67722  -0.64416
 Alpha  occ. eigenvalues --   -0.63237  -0.61127  -0.59049  -0.58555  -0.57815
 Alpha  occ. eigenvalues --   -0.57049  -0.56014  -0.55280  -0.54090  -0.52586
 Alpha  occ. eigenvalues --   -0.51921  -0.51851  -0.51692  -0.51519  -0.50755
 Alpha  occ. eigenvalues --   -0.50053  -0.50009  -0.48507  -0.48149  -0.48034
 Alpha  occ. eigenvalues --   -0.46936  -0.45820  -0.45733  -0.45339  -0.44757
 Alpha  occ. eigenvalues --   -0.42615  -0.41815  -0.41219  -0.41028  -0.34998
 Alpha  occ. eigenvalues --   -0.34861  -0.33973  -0.32530  -0.29401  -0.26893
 Alpha virt. eigenvalues --   -0.02695   0.02629   0.03324   0.03865   0.04357
 Alpha virt. eigenvalues --    0.04539   0.04817   0.05582   0.06253   0.06375
 Alpha virt. eigenvalues --    0.06771   0.07133   0.07781   0.07877   0.08036

 Mulliken charges:
               1
     1  C   -0.389503
     2  H    0.171618
     3  H    0.155933
     4  H    0.180630
     5  N    0.064723
     6  C   -0.386361
     7  C   -0.466519
     8  H    0.185650
     9  H    0.157806
    10  H    0.169113
    11  C   -0.373531
    12  C   -0.236757
    13  C   -0.426268
    14  H    0.221027
    15  H    0.189467
    16  C   -0.218262
    17  C    0.639263
    18  H    0.163301
    19  H    0.215296
    20  C    0.040009
    21  C    0.138373
    22  H    0.244462
    23  C    0.156442
    24  H   -0.199917
    25  C    1.216909
    26  O   -0.367023
    27  C   -0.997035
    28  C   -0.077376
    29  H    0.403551
    30  C   -1.157158
    31  H    0.134984
    32  O   -0.340020
    33  C   -0.218978
    34  C    0.599186
    35  H    0.188496
    36  H    0.225957
    37  C   -0.544663
    38  H    0.171363
    39  H    0.187359
    40  H    0.178455
 Sum of Mulliken charges =   0.00000

 Dipole moment (field-independent basis, Debye):
    X=              2.3034    Y=              1.5021    Z=             -8.6420  Tot=              9.0689
 Quadrupole moment (field-independent basis, Debye-Ang):
   XX=           -132.1853   YY=           -132.0452   ZZ=           -171.4198
   XY=             -5.9193   XZ=             25.4308   YZ=             70.6540

 Normal termination of Gaussian 09 at Mon Nov 13 15:50:16 2017.
