 Gaussian 09, Revision D.01,
 Gaussian 09:  ES64L-G09RevD.01 24-Apr-2013

 ------------------------------------------
 #p wb97xd/6-311++G** td=(nstates=2) nosymm
 ------------------------------------------

 -----
 Title
 -----
 Symbolic Z-matrix:
 Charge =  0 Multiplicity = 1

                          Input orientation:
 ---------------------------------------------------------------------
 Center     Atomic      Atomic             Coordinates (Angstroms)
 Number     Number       Type             X           Y           Z
 ---------------------------------------------------------------------
      1          1           0       -0.511118   -2.858447   -1.277930
      2          6           0        0.184268   -3.640208   -0.973811
      3          6           0        0.269103   -4.798855   -1.718000
      4          6           0        0.976718   -3.420993    0.178919
      5          1           0       -0.359864   -4.913720   -2.598454
      6          6           0        1.170762   -5.834385   -1.341350
      7          6           0        0.878808   -2.180322    0.882540
      8          6           0        1.861141   -4.464382    0.551623
      9          6           0        1.961142   -5.628701   -0.172407
     10          7           0        1.278140   -6.976522   -2.065820
     11          6           0        1.585681   -1.821645    1.999082
     12          1           0        0.182215   -1.444266    0.466766
     13          1           0        2.487573   -4.353397    1.436169
     14          1           0        2.657520   -6.395843    0.157913
     15          6           0        0.460908   -7.174323   -3.253037
     16          6           0        2.211841   -8.018129   -1.656186
     17          6           0        1.467449   -0.532362    2.622715
     18          1           0        2.289600   -2.528565    2.433749
     19          1           0       -0.610241   -7.095578   -3.016782
     20          1           0        0.653370   -8.170357   -3.661002
     21          1           0        0.696525   -6.431926   -4.031589
     22          1           0        2.180453   -8.834703   -2.384121
     23          1           0        1.948639   -8.420379   -0.666002
     24          1           0        3.242108   -7.631529   -1.609305
     25          6           0        2.245913   -0.228357    3.839616
     26          8           0        0.715061    0.388406    2.136689
     27          6           0        2.912581   -1.218549    4.588630
     28          6           0        2.338798    1.120413    4.286060
     29          1           0        1.138895    1.590739    2.916420
     30          6           0        3.649563   -0.927219    5.728790
     31          1           0        2.857368   -2.258838    4.272261
     32          8           0        1.699561    2.112082    3.625623
     33          6           0        3.117416    1.429050    5.412007
     34          6           0        4.327222   -2.023253    6.505795
     35          6           0        3.752856    0.421359    6.122356
     36          1           0        3.203047    2.471438    5.719167
     37          1           0        3.902137   -2.120887    7.517750
     38          1           0        5.397803   -1.812439    6.636276
     39          1           0        4.229940   -2.986328    5.987280
     40          1           0        4.342342    0.675414    7.006038
     41          8           0       -3.675439   -8.692082   -3.625624
     42          6           0       -3.036202   -7.700412   -4.286061
     43          1           0       -4.236105   -8.170739   -2.916421
     44          6           0       -3.129087   -6.351643   -3.839617
     45          6           0       -2.257584   -8.009049   -5.412007
     46          8           0       -4.659939   -6.968405   -2.136690
     47          6           0       -3.907551   -6.047638   -2.622715
     48          6           0       -2.462419   -5.361451   -4.588631
     49          6           0       -1.622144   -7.001358   -6.122357
     50          1           0       -2.171953   -9.051437   -5.719168
     51          6           0       -3.789319   -4.758355   -1.999083
     52          6           0       -1.725437   -5.652780   -5.728791
     53          1           0       -2.517632   -4.321162   -4.272262
     54          1           0       -1.032658   -7.255414   -7.006039
     55          6           0       -4.496192   -4.399678   -0.882540
     56          1           0       -3.085400   -4.051435   -2.433750
     57          6           0       -1.047778   -4.556747   -6.505796
     58          6           0       -4.398282   -3.159007   -0.178920
     59          1           0       -5.192785   -5.135733   -0.466767
     60          1           0       -1.472863   -4.459112   -7.517750
     61          1           0        0.022803   -4.767561   -6.636277
     62          1           0       -1.145060   -3.593672   -5.987280
     63          6           0       -3.513859   -2.115618   -0.551624
     64          6           0       -5.190732   -2.939791    0.973810
     65          1           0       -2.887427   -2.226603   -1.436170
     66          6           0       -3.413858   -0.951298    0.172407
     67          6           0       -5.105897   -1.781145    1.717999
     68          1           0       -5.886118   -3.721553    1.277929
     69          1           0       -2.717480   -0.184157   -0.157914
     70          6           0       -4.204238   -0.745615    1.341350
     71          1           0       -5.734864   -1.666280    2.598454
     72          7           0       -4.096860    0.396522    2.065819
     73          6           0       -4.914092    0.594323    3.253036
     74          6           0       -3.163159    1.438129    1.656185
     75          1           0       -4.678475   -0.148074    4.031588
     76          1           0       -5.985241    0.515578    3.016782
     77          1           0       -4.721630    1.590357    3.661001
     78          1           0       -3.194547    2.254703    2.384121
     79          1           0       -3.426361    1.840379    0.666001
     80          1           0       -2.132892    1.051530    1.609304
 ---------------------------------------------------------------------

 SCF Done:  E(RwB97XD) =  -1804.97139417     A.U. after   19 cycles

 Excitation energies and oscillator strengths:

 Excited state symmetry could not be determined.
 Excited State   1:      Singlet-?Sym    3.1285 eV  396.31 nm  f=0.0500  <S**2>=0.000
     149 -> 151        0.41565
     149 -> 152        0.19642
     150 -> 151        0.25509
     150 -> 152       -0.40544
 This state for optimization and/or second-order correction.
 Total Energy, E(TD-HF/TD-KS) =  -1804.85642558
 Copying the excited state density for this state as the 1-particle RhoCI density.

 Excited state symmetry could not be determined.
 Excited State   2:      Singlet-?Sym    3.3149 eV  374.02 nm  f=2.0704  <S**2>=0.000
     147 -> 151        0.11692
     148 -> 152       -0.14550
     149 -> 151        0.45077
     150 -> 152        0.45878

 Alpha  occ. eigenvalues --  -19.25065 -19.24648 -19.23649 -19.23567 -14.47364
 Alpha  occ. eigenvalues --  -14.47243 -10.38524 -10.38353 -10.36093 -10.35462
 Alpha  occ. eigenvalues --  -10.35234 -10.35125 -10.33076 -10.33008 -10.32375
 Alpha  occ. eigenvalues --  -10.32107 -10.32040 -10.31935 -10.30783 -10.30672
 Alpha  occ. eigenvalues --  -10.30652 -10.30624 -10.30608 -10.30545 -10.30394
 Alpha  occ. eigenvalues --  -10.30282 -10.29955 -10.29864 -10.29835 -10.29803
 Alpha  occ. eigenvalues --  -10.29737 -10.29692 -10.29641 -10.29524 -10.29476
 Alpha  occ. eigenvalues --  -10.29366 -10.29323 -10.29069 -10.29040 -10.28869
 Alpha  occ. eigenvalues --  -10.28529 -10.28416  -1.15343  -1.15049  -1.11504
 Alpha  occ. eigenvalues --   -1.11316  -1.07521  -1.07425  -0.97106  -0.96921
 Alpha  occ. eigenvalues --   -0.96882  -0.96239  -0.91155  -0.90990  -0.88337
 Alpha  occ. eigenvalues --   -0.87808  -0.87113  -0.86840  -0.86740  -0.86382
 Alpha  occ. eigenvalues --   -0.84808  -0.84601  -0.83488  -0.83347  -0.79333
 Alpha  occ. eigenvalues --   -0.79143  -0.78433  -0.77791  -0.75132  -0.74721
 Alpha  occ. eigenvalues --   -0.72509  -0.72114  -0.71540  -0.71348  -0.68939
 Alpha  occ. eigenvalues --   -0.68536  -0.67390  -0.67072  -0.64403  -0.64192
 Alpha  occ. eigenvalues --   -0.63179  -0.62999  -0.61050  -0.60709  -0.60537
 Alpha  occ. eigenvalues --   -0.60009  -0.58563  -0.58431  -0.58287  -0.57863
 Alpha  occ. eigenvalues --   -0.57001  -0.56972  -0.55903  -0.55566  -0.55255
 Alpha  occ. eigenvalues --   -0.54897  -0.54475  -0.54313  -0.52782  -0.52614
 Alpha  occ. eigenvalues --   -0.52431  -0.52247  -0.52037  -0.51928  -0.51749
 Alpha  occ. eigenvalues --   -0.51444  -0.51121  -0.50976  -0.50961  -0.50483
 Alpha  occ. eigenvalues --   -0.50106  -0.50067  -0.49725  -0.49523  -0.49208
 Alpha  occ. eigenvalues --   -0.48667  -0.48185  -0.47865  -0.47830  -0.47666
 Alpha  occ. eigenvalues --   -0.47122  -0.46971  -0.46894  -0.46514  -0.46182
 Alpha  occ. eigenvalues --   -0.46063  -0.45863  -0.45662  -0.45247  -0.44655
 Alpha  occ. eigenvalues --   -0.43001  -0.42580  -0.42340  -0.42118  -0.41521
 Alpha  occ. eigenvalues --   -0.41119  -0.41062  -0.40908  -0.35207  -0.34958
 Alpha  occ. eigenvalues --   -0.34872  -0.34678  -0.34595  -0.34514  -0.34323
 Alpha  occ. eigenvalues --   -0.33647  -0.29779  -0.29094  -0.26765  -0.26567
 Alpha virt. eigenvalues --   -0.03362  -0.03092   0.02653   0.03062   0.03217
 Alpha virt. eigenvalues --    0.03473   0.03711   0.04147   0.04432   0.04587
 Alpha virt. eigenvalues --    0.04836   0.04999   0.05265   0.05564   0.05611

 Mulliken charges:
               1
     1  H    0.114976
     2  C   -0.079548
     3  C    0.045446
     4  C    1.032635
     5  H    0.036048
     6  C   -0.406931
     7  C    0.146835
     8  C   -0.562397
     9  C   -0.593609
    10  N    0.265323
    11  C   -0.075753
    12  H    0.176160
    13  H    0.157042
    14  H    0.234596
    15  C   -0.670410
    16  C   -0.321099
    17  C   -0.344763
    18  H   -0.159873
    19  H    0.304764
    20  H    0.106173
    21  H    0.258811
    22  H    0.178245
    23  H    0.170904
    24  H    0.161858
    25  C    1.543073
    26  O   -0.293264
    27  C   -1.135763
    28  C   -0.018658
    29  H    0.400312
    30  C   -0.108333
    31  H    0.077264
    32  O   -0.301580
    33  C   -0.437688
    34  C   -0.493766
    35  C   -0.286802
    36  H    0.229473
    37  H    0.179946
    38  H    0.168407
    39  H    0.168471
    40  H    0.208784
    41  O   -0.259992
    42  C   -0.277102
    43  H    0.352902
    44  C    0.245636
    45  C   -0.200209
    46  O   -0.289650
    47  C   -0.379995
    48  C   -0.650958
    49  C   -0.119565
    50  H    0.251159
    51  C    0.340252
    52  C    0.396395
    53  H    0.287674
    54  H    0.222618
    55  C    0.086612
    56  H   -0.453192
    57  C   -0.602340
    58  C    0.271650
    59  H    0.271009
    60  H    0.193451
    61  H    0.188200
    62  H    0.154298
    63  C   -0.048259
    64  C   -0.283427
    65  H    0.116433
    66  C   -0.213817
    67  C   -0.314697
    68  H    0.212155
    69  H    0.264076
    70  C   -0.402772
    71  H    0.193748
    72  N    0.099607
    73  C   -0.355964
    74  C   -0.392041
    75  H    0.181010
    76  H    0.169658
    77  H    0.162609
    78  H    0.167899
    79  H    0.181840
    80  H    0.157782
 Sum of Mulliken charges =   0.00000

 Dipole moment (field-independent basis, Debye):
    X=              2.2824    Y=             -0.0678    Z=              0.2479  Tot=              2.2969
 Quadrupole moment (field-independent basis, Debye-Ang):
   XX=           -250.5010   YY=           -265.4166   ZZ=           -223.7716
   XY=            -57.6483   XZ=            -18.7489   YZ=             -4.0402

 Normal termination of Gaussian 09 at Thu Nov  2 23:36:58 2017.
