 Gaussian 09, Revision D.01,
 Gaussian 09:  ES64L-G09RevD.01 24-Apr-2013

 ------------------------------------------
 #p wb97xd/6-311++G** td=(nstates=2) nosymm
 ------------------------------------------

 -----
 Title
 -----
 Symbolic Z-matrix:
 Charge =  0 Multiplicity = 1

                          Input orientation:
 ---------------------------------------------------------------------
 Center     Atomic      Atomic             Coordinates (Angstroms)
 Number     Number       Type             X           Y           Z
 ---------------------------------------------------------------------
      1          8           0       -3.675439   -8.692082   -3.625624
      2          6           0       -3.036202   -7.700412   -4.286061
      3          1           0       -4.236105   -8.170739   -2.916421
      4          6           0       -3.129087   -6.351643   -3.839617
      5          6           0       -2.257584   -8.009049   -5.412007
      6          8           0       -4.659939   -6.968405   -2.136690
      7          6           0       -3.907551   -6.047638   -2.622715
      8          6           0       -2.462419   -5.361451   -4.588631
      9          6           0       -1.622144   -7.001358   -6.122357
     10          1           0       -2.171953   -9.051437   -5.719168
     11          6           0       -3.789319   -4.758355   -1.999083
     12          6           0       -1.725437   -5.652780   -5.728791
     13          1           0       -2.517632   -4.321162   -4.272262
     14          1           0       -1.032658   -7.255414   -7.006039
     15          6           0       -4.496192   -4.399678   -0.882540
     16          1           0       -3.085400   -4.051435   -2.433750
     17          6           0       -1.047778   -4.556747   -6.505796
     18          6           0       -4.398282   -3.159007   -0.178920
     19          1           0       -5.192785   -5.135733   -0.466767
     20          1           0       -1.472863   -4.459112   -7.517750
     21          1           0        0.022803   -4.767561   -6.636277
     22          1           0       -1.145060   -3.593672   -5.987280
     23          6           0       -3.513859   -2.115618   -0.551624
     24          6           0       -5.190732   -2.939791    0.973810
     25          1           0       -2.887427   -2.226603   -1.436170
     26          6           0       -3.413858   -0.951298    0.172407
     27          6           0       -5.105897   -1.781145    1.717999
     28          1           0       -5.886118   -3.721553    1.277929
     29          1           0       -2.717480   -0.184157   -0.157914
     30          6           0       -4.204238   -0.745615    1.341350
     31          1           0       -5.734864   -1.666280    2.598454
     32          7           0       -4.096860    0.396522    2.065819
     33          6           0       -4.914092    0.594323    3.253036
     34          6           0       -3.163159    1.438129    1.656185
     35          1           0       -4.678475   -0.148074    4.031588
     36          1           0       -5.985241    0.515578    3.016782
     37          1           0       -4.721630    1.590357    3.661001
     38          1           0       -3.194547    2.254703    2.384121
     39          1           0       -3.426361    1.840379    0.666001
     40          1           0       -2.132892    1.051530    1.609304
 ---------------------------------------------------------------------

 SCF Done:  E(RwB97XD) =  -902.476480592     A.U. after   18 cycles

 Excitation energies and oscillator strengths:

 Excited state symmetry could not be determined.
 Excited State   1:      Singlet-?Sym    3.3107 eV  374.50 nm  f=1.1168  <S**2>=0.000
      74 -> 76         0.15240
      74 -> 78        -0.14053
      75 -> 76         0.65679
 This state for optimization and/or second-order correction.
 Total Energy, E(TD-HF/TD-KS) =  -902.354815227
 Copying the excited state density for this state as the 1-particle RhoCI density.

 Excited state symmetry could not be determined.
 Excited State   2:      Singlet-?Sym    3.7664 eV  329.18 nm  f=0.0607  <S**2>=0.000
      72 -> 76         0.42911
      73 -> 76        -0.11387
      74 -> 76         0.47237
      74 -> 78        -0.10680
      75 -> 76        -0.12463
      75 -> 78        -0.11421

 Alpha  occ. eigenvalues --  -19.24138 -19.23138 -14.47942 -10.37983 -10.35549
 Alpha  occ. eigenvalues --  -10.35064 -10.33791 -10.33705 -10.31759 -10.30855
 Alpha  occ. eigenvalues --  -10.30807 -10.30102 -10.30009 -10.29828 -10.29492
 Alpha  occ. eigenvalues --  -10.29485 -10.29374 -10.29149 -10.28869 -10.28179
 Alpha  occ. eigenvalues --  -10.28148  -1.14549  -1.10830  -1.08184  -0.97169
 Alpha  occ. eigenvalues --   -0.95905  -0.91079  -0.87656  -0.87193  -0.86100
 Alpha  occ. eigenvalues --   -0.84732  -0.84254  -0.79492  -0.77507  -0.74701
 Alpha  occ. eigenvalues --   -0.72255  -0.71512  -0.68606  -0.66960  -0.64278
 Alpha  occ. eigenvalues --   -0.63412  -0.60675  -0.59649  -0.58809  -0.57878
 Alpha  occ. eigenvalues --   -0.57772  -0.55722  -0.54997  -0.54341  -0.52781
 Alpha  occ. eigenvalues --   -0.52084  -0.51590  -0.51464  -0.51288  -0.50842
 Alpha  occ. eigenvalues --   -0.50215  -0.49766  -0.48706  -0.48364  -0.48181
 Alpha  occ. eigenvalues --   -0.47114  -0.46230  -0.45934  -0.45332  -0.44311
 Alpha  occ. eigenvalues --   -0.42725  -0.41873  -0.41382  -0.40544  -0.35143
 Alpha  occ. eigenvalues --   -0.35026  -0.34051  -0.33333  -0.28776  -0.26960
 Alpha virt. eigenvalues --   -0.02934   0.02547   0.03310   0.03713   0.04291
 Alpha virt. eigenvalues --    0.04428   0.04878   0.05654   0.06190   0.06288
 Alpha virt. eigenvalues --    0.06669   0.06770   0.07784   0.07969   0.08128

 Mulliken charges:
               1
     1  O   -0.335917
     2  C   -0.271588
     3  H    0.393819
     4  C    1.252879
     5  C   -0.419450
     6  O   -0.336212
     7  C   -0.122700
     8  C   -0.875733
     9  C   -0.346604
    10  H    0.233391
    11  C    0.360662
    12  C    0.062496
    13  H    0.073424
    14  H    0.208152
    15  C    0.198979
    16  H   -0.182284
    17  C   -0.533961
    18  C    0.939198
    19  H    0.240323
    20  H    0.177939
    21  H    0.167543
    22  H    0.165919
    23  C   -0.686979
    24  C   -0.289070
    25  H    0.144661
    26  C   -0.286972
    27  C   -0.270747
    28  H    0.215738
    29  H    0.236339
    30  C   -0.612351
    31  H    0.188191
    32  N    0.061951
    33  C   -0.388710
    34  C   -0.384970
    35  H    0.185373
    36  H    0.170738
    37  H    0.155958
    38  H    0.158639
    39  H    0.179815
    40  H    0.172121
 Sum of Mulliken charges =   0.00000

 Dipole moment (field-independent basis, Debye):
    X=              1.3278    Y=              9.0694    Z=              3.4074  Tot=              9.7789
 Quadrupole moment (field-independent basis, Debye-Ang):
   XX=           -132.9742   YY=           -192.7750   ZZ=           -112.2197
   XY=            -40.9149   XZ=            -27.5794   YZ=            -12.6125

 Normal termination of Gaussian 09 at Thu Nov  2 20:10:15 2017.
