 Gaussian 09, Revision D.01,
 Gaussian 09:  ES64L-G09RevD.01 24-Apr-2013

 ------------------------------------------
 #p wb97xd 6-311++G** td=(nstates=4) nosymm
 ------------------------------------------

 -----
 Title
 -----
 Symbolic Z-matrix:
 Charge =  0 Multiplicity = 1

                          Input orientation:
 ---------------------------------------------------------------------
 Center     Atomic      Atomic             Coordinates (Angstroms)
 Number     Number       Type             X           Y           Z
 ---------------------------------------------------------------------
      1          6           0        2.553201   -2.658779   -4.605183
      2          6           0        2.003740   -1.591982   -5.375045
      3          6           0        2.364491   -2.727633   -3.244044
      4          1           0        3.135661   -3.435715   -5.094676
      5          6           0        1.247109   -0.607923   -4.680003
      6          7           0        2.197245   -1.524853   -6.717190
      7          6           0        1.628214   -1.742526   -2.544853
      8          1           0        2.810172   -3.558198   -2.697065
      9          6           0        1.071163   -0.694102   -3.315116
     10          1           0        0.800426    0.223073   -5.220494
     11          6           0        3.041507   -2.501856   -7.387689
     12          6           0        1.618481   -0.432525   -7.483522
     13          6           0        1.453269   -1.740841   -1.127854
     14          1           0        0.496034    0.074390   -2.797705
     15          1           0        2.638680   -3.520413   -7.274076
     16          1           0        3.087893   -2.266027   -8.455047
     17          1           0        4.067959   -2.481285   -6.985003
     18          1           0        1.809186   -0.598363   -8.548640
     19          1           0        0.529036   -0.389905   -7.334041
     20          1           0        2.054389    0.539030   -7.199118
     21          6           0        1.995711   -2.614472   -0.226791
     22          1           0        0.824780   -0.942808   -0.722327
     23          1           0        2.643729   -3.416825   -0.571906
     24          6           0        1.754536   -2.484814    1.187257
     25          6           0        2.331984   -3.444253    2.138501
     26          8           0        1.021369   -1.531306    1.639506
     27          6           0        3.125072   -4.542615    1.749447
     28          6           0        2.061708   -3.290261    3.532347
     29          1           0        1.047936   -1.760816    3.104999
     30          6           0        3.609347   -5.451136    2.673973
     31          1           0        3.364409   -4.705792    0.700013
     32          8           0        1.306270   -2.266076    3.979362
     33          6           0        2.556416   -4.216754    4.455230
     34          6           0        3.315939   -5.308821    4.043903
     35          1           0        4.225537   -6.285629    2.340322
     36          1           0        2.330283   -4.059447    5.510250
     37          6           0        3.797503   -6.319273    5.042906
     38          1           0        4.283994   -7.172302    4.553201
     39          1           0        4.514960   -5.875751    5.751278
     40          1           0        2.955985   -6.707014    5.637774
 ---------------------------------------------------------------------

 SCF Done:  E(RwB97XD) =  -902.479874588     A.U. after   17 cycles

 Excitation energies and oscillator strengths:

 Excited state symmetry could not be determined.
 Excited State   1:      Singlet-?Sym    3.3672 eV  368.22 nm  f=1.2622  <S**2>=0.000
      70 -> 76        -0.10318
      74 -> 76        -0.13935
      74 -> 78        -0.12139
      75 -> 76         0.65975
 This state for optimization and/or second-order correction.
 Total Energy, E(TD-HF/TD-KS) =  -902.356133902
 Copying the excited state density for this state as the 1-particle RhoCI density.

 Excited state symmetry could not be determined.
 Excited State   2:      Singlet-?Sym    3.8291 eV  323.79 nm  f=0.0001  <S**2>=0.000
      72 -> 76         0.66367
      72 -> 78         0.12933

 Excited state symmetry could not be determined.
 Excited State   3:      Singlet-?Sym    3.9288 eV  315.57 nm  f=0.0212  <S**2>=0.000
      74 -> 76         0.62945
      74 -> 78         0.18239
      75 -> 76         0.13913
      75 -> 78        -0.14333

 Excited state symmetry could not be determined.
 Excited State   4:      Singlet-?Sym    4.4844 eV  276.48 nm  f=0.0524  <S**2>=0.000
      71 -> 76         0.26195
      71 -> 78        -0.12381
      74 -> 81         0.11464
      75 -> 78         0.26799
      75 -> 81         0.54490

 Alpha  occ. eigenvalues --  -19.24150 -19.22971 -14.47766 -10.37872 -10.35378
 Alpha  occ. eigenvalues --  -10.35213 -10.33668 -10.33598 -10.31385 -10.30688
 Alpha  occ. eigenvalues --  -10.30684 -10.30611 -10.29980 -10.29877 -10.29852
 Alpha  occ. eigenvalues --  -10.29664 -10.29326 -10.28736 -10.28327 -10.28085
 Alpha  occ. eigenvalues --  -10.27622  -1.14668  -1.10849  -1.08060  -0.97052
 Alpha  occ. eigenvalues --   -0.95936  -0.90980  -0.88587  -0.87042  -0.85267
 Alpha  occ. eigenvalues --   -0.84123  -0.83602  -0.80906  -0.78503  -0.73256
 Alpha  occ. eigenvalues --   -0.71740  -0.70716  -0.69060  -0.67722  -0.64416
 Alpha  occ. eigenvalues --   -0.63237  -0.61127  -0.59049  -0.58555  -0.57815
 Alpha  occ. eigenvalues --   -0.57049  -0.56014  -0.55280  -0.54090  -0.52586
 Alpha  occ. eigenvalues --   -0.51921  -0.51851  -0.51692  -0.51519  -0.50755
 Alpha  occ. eigenvalues --   -0.50053  -0.50009  -0.48507  -0.48149  -0.48034
 Alpha  occ. eigenvalues --   -0.46936  -0.45820  -0.45733  -0.45339  -0.44758
 Alpha  occ. eigenvalues --   -0.42615  -0.41815  -0.41219  -0.41029  -0.34998
 Alpha  occ. eigenvalues --   -0.34861  -0.33973  -0.32530  -0.29401  -0.26893
 Alpha virt. eigenvalues --   -0.02695   0.02629   0.03324   0.03865   0.04357
 Alpha virt. eigenvalues --    0.04539   0.04817   0.05582   0.06253   0.06375
 Alpha virt. eigenvalues --    0.06771   0.07133   0.07781   0.07877   0.08036

 Mulliken charges:
               1
     1  C   -0.373510
     2  C   -0.466510
     3  C   -0.426278
     4  H    0.221026
     5  C   -0.236760
     6  N    0.064717
     7  C    0.639259
     8  H    0.163301
     9  C   -0.218274
    10  H    0.189467
    11  C   -0.389501
    12  C   -0.386359
    13  C    0.040011
    14  H    0.215295
    15  H    0.171617
    16  H    0.155933
    17  H    0.180629
    18  H    0.157806
    19  H    0.169108
    20  H    0.185649
    21  C    0.138380
    22  H    0.244462
    23  H   -0.199918
    24  C    0.156449
    25  C    1.216889
    26  O   -0.367021
    27  C   -0.997016
    28  C   -0.077396
    29  H    0.403551
    30  C   -1.157149
    31  H    0.134985
    32  O   -0.340013
    33  C   -0.218985
    34  C    0.599182
    35  H    0.188495
    36  H    0.225956
    37  C   -0.544656
    38  H    0.171362
    39  H    0.187360
    40  H    0.178455
 Sum of Mulliken charges =   0.00000

 Dipole moment (field-independent basis, Debye):
    X=              2.3034    Y=             -1.5022    Z=             -8.6417  Tot=              9.0687
 Quadrupole moment (field-independent basis, Debye-Ang):
   XX=           -117.5970   YY=           -108.4344   ZZ=            -78.0579
   XY=            -16.9403   XZ=            -14.3774   YZ=              5.3770

 Normal termination of Gaussian 09 at Mon Nov 13 15:50:14 2017.
