 Gaussian 09, Revision D.01,
 Gaussian 09:  ES64L-G09RevD.01 24-Apr-2013

 ------------------------------------------
 #p wb97xd 6-311++G** td=(nstates=4) nosymm
 ------------------------------------------

 -----
 Title
 -----
 Symbolic Z-matrix:
 Charge =  0 Multiplicity = 1

                          Input orientation:
 ---------------------------------------------------------------------
 Center     Atomic      Atomic             Coordinates (Angstroms)
 Number     Number       Type             X           Y           Z
 ---------------------------------------------------------------------
      1          7           0        4.096860   -0.396522   -2.065820
      2          6           0        4.914092   -0.594323   -3.253037
      3          6           0        3.163159   -1.438129   -1.656186
      4          6           0        4.204238    0.745615   -1.341350
      5          1           0        5.985241   -0.515578   -3.016782
      6          1           0        4.721630   -1.590357   -3.661002
      7          1           0        4.678475    0.148074   -4.031589
      8          1           0        3.194547   -2.254703   -2.384121
      9          1           0        3.426361   -1.840379   -0.666002
     10          1           0        2.132892   -1.051529   -1.609305
     11          6           0        3.413868    0.951299   -0.172407
     12          6           0        5.105907    1.781145   -1.718000
     13          6           0        3.513859    2.115618    0.551623
     14          1           0        2.717480    0.184157    0.157913
     15          6           0        5.190742    2.939792   -0.973811
     16          1           0        5.734864    1.666280   -2.598454
     17          6           0        4.398282    3.159007    0.178919
     18          1           0        2.887427    2.226603    1.436169
     19          1           0        5.886118    3.721553   -1.277930
     20          6           0        4.496192    4.399678    0.882540
     21          6           0        3.789319    4.758355    1.999082
     22          1           0        5.192785    5.135733    0.466766
     23          6           0        3.907551    6.047638    2.622715
     24          1           0        3.085400    4.051435    2.433749
     25          8           0        4.659939    6.968406    2.136689
     26          6           0        3.129087    6.351643    3.839616
     27          1           0        4.236105    8.170739    2.916420
     28          6           0        3.036202    7.700413    4.286060
     29          6           0        2.462429    5.361451    4.588630
     30          8           0        3.675449    8.692082    3.625623
     31          6           0        2.257594    8.009050    5.412007
     32          6           0        1.725437    5.652781    5.728790
     33          1           0        2.517632    4.321162    4.272261
     34          6           0        1.622154    7.001359    6.122356
     35          1           0        2.171953    9.051438    5.719167
     36          6           0        1.047788    4.556747    6.505795
     37          1           0        1.032658    7.255414    7.006038
     38          1           0        1.472863    4.459112    7.517750
     39          1           0       -0.022793    4.767561    6.636276
     40          1           0        1.145070    3.593672    5.987280
 ---------------------------------------------------------------------

 SCF Done:  E(RwB97XD) =  -902.476480434     A.U. after   18 cycles

 Excitation energies and oscillator strengths:

 Excited state symmetry could not be determined.
 Excited State   1:      Singlet-?Sym    3.3107 eV  374.50 nm  f=1.1164  <S**2>=0.000
      74 -> 76         0.15240
      74 -> 78         0.14057
      75 -> 76         0.65679
 This state for optimization and/or second-order correction.
 Total Energy, E(TD-HF/TD-KS) =  -902.354815163
 Copying the excited state density for this state as the 1-particle RhoCI density.

 Excited state symmetry could not be determined.
 Excited State   2:      Singlet-?Sym    3.7664 eV  329.18 nm  f=0.0607  <S**2>=0.000
      72 -> 76         0.42912
      73 -> 76        -0.11380
      74 -> 76         0.47236
      74 -> 78         0.10674
      75 -> 76        -0.12461
      75 -> 78         0.11427

 Excited state symmetry could not be determined.
 Excited State   3:      Singlet-?Sym    3.7854 eV  327.53 nm  f=0.0313  <S**2>=0.000
      72 -> 76         0.49205
      72 -> 78         0.10132
      74 -> 76        -0.42800

 Excited state symmetry could not be determined.
 Excited State   4:      Singlet-?Sym    4.4780 eV  276.88 nm  f=0.0490  <S**2>=0.000
      71 -> 76        -0.26732
      71 -> 78         0.12161
      74 -> 81        -0.16515
      75 -> 78        -0.29012
      75 -> 81         0.51535

 Alpha  occ. eigenvalues --  -19.24138 -19.23138 -14.47942 -10.37983 -10.35549
 Alpha  occ. eigenvalues --  -10.35064 -10.33791 -10.33705 -10.31759 -10.30855
 Alpha  occ. eigenvalues --  -10.30807 -10.30102 -10.30009 -10.29828 -10.29492
 Alpha  occ. eigenvalues --  -10.29485 -10.29374 -10.29149 -10.28869 -10.28179
 Alpha  occ. eigenvalues --  -10.28148  -1.14548  -1.10830  -1.08184  -0.97169
 Alpha  occ. eigenvalues --   -0.95905  -0.91079  -0.87656  -0.87193  -0.86100
 Alpha  occ. eigenvalues --   -0.84732  -0.84254  -0.79492  -0.77507  -0.74701
 Alpha  occ. eigenvalues --   -0.72255  -0.71512  -0.68606  -0.66960  -0.64278
 Alpha  occ. eigenvalues --   -0.63412  -0.60675  -0.59649  -0.58809  -0.57878
 Alpha  occ. eigenvalues --   -0.57772  -0.55722  -0.54997  -0.54341  -0.52781
 Alpha  occ. eigenvalues --   -0.52084  -0.51590  -0.51464  -0.51288  -0.50842
 Alpha  occ. eigenvalues --   -0.50215  -0.49766  -0.48706  -0.48364  -0.48181
 Alpha  occ. eigenvalues --   -0.47114  -0.46230  -0.45934  -0.45332  -0.44311
 Alpha  occ. eigenvalues --   -0.42725  -0.41873  -0.41382  -0.40544  -0.35143
 Alpha  occ. eigenvalues --   -0.35026  -0.34051  -0.33333  -0.28776  -0.26960
 Alpha virt. eigenvalues --   -0.02934   0.02547   0.03310   0.03713   0.04291
 Alpha virt. eigenvalues --    0.04428   0.04878   0.05654   0.06190   0.06288
 Alpha virt. eigenvalues --    0.06669   0.06770   0.07784   0.07969   0.08128

 Mulliken charges:
               1
     1  N    0.061951
     2  C   -0.388711
     3  C   -0.384968
     4  C   -0.612388
     5  H    0.170737
     6  H    0.155957
     7  H    0.185373
     8  H    0.158639
     9  H    0.179814
    10  H    0.172121
    11  C   -0.286955
    12  C   -0.270747
    13  C   -0.686973
    14  H    0.236339
    15  C   -0.289082
    16  H    0.188192
    17  C    0.939198
    18  H    0.144662
    19  H    0.215737
    20  C    0.198993
    21  C    0.360678
    22  H    0.240324
    23  C   -0.122714
    24  H   -0.182291
    25  O   -0.336214
    26  C    1.252795
    27  H    0.393820
    28  C   -0.271571
    29  C   -0.875703
    30  O   -0.335920
    31  C   -0.419481
    32  C    0.062545
    33  H    0.073424
    34  C   -0.346579
    35  H    0.233392
    36  C   -0.533951
    37  H    0.208152
    38  H    0.177940
    39  H    0.167544
    40  H    0.165919
 Sum of Mulliken charges =   0.00000

 Dipole moment (field-independent basis, Debye):
    X=             -1.3278    Y=             -9.0694    Z=             -3.4074  Tot=              9.7789
 Quadrupole moment (field-independent basis, Debye-Ang):
   XX=           -132.9746   YY=           -192.7755   ZZ=           -112.2196
   XY=            -40.9154   XZ=            -27.5797   YZ=            -12.6127

 Normal termination of Gaussian 09 at Thu Nov  2 21:24:16 2017.
