 Gaussian 09, Revision D.01,
 Gaussian 09:  ES64L-G09RevD.01 24-Apr-2013

 ------------------------------------------
 #p wb97xd 6-311++G** td=(nstates=4) nosymm
 ------------------------------------------

 -----
 Title
 -----
 Symbolic Z-matrix:
 Charge =  0 Multiplicity = 1

                          Input orientation:
 ---------------------------------------------------------------------
 Center     Atomic      Atomic             Coordinates (Angstroms)
 Number     Number       Type             X           Y           Z
 ---------------------------------------------------------------------
      1          6           0        2.553201   -2.658779   -4.605183
      2          6           0        2.003740   -1.591982   -5.375045
      3          6           0        2.364491   -2.727633   -3.244044
      4          1           0        3.135661   -3.435715   -5.094676
      5          6           0        1.247109   -0.607923   -4.680003
      6          7           0        2.197245   -1.524853   -6.717190
      7          6           0        1.628214   -1.742526   -2.544853
      8          1           0        2.810172   -3.558198   -2.697065
      9          6           0        1.071163   -0.694102   -3.315116
     10          1           0        0.800426    0.223073   -5.220494
     11          6           0        3.041507   -2.501856   -7.387689
     12          6           0        1.618481   -0.432525   -7.483522
     13          6           0        1.453269   -1.740841   -1.127854
     14          1           0        0.496034    0.074390   -2.797705
     15          1           0        2.638680   -3.520413   -7.274076
     16          1           0        3.087893   -2.266027   -8.455047
     17          1           0        4.067959   -2.481285   -6.985003
     18          1           0        1.809186   -0.598363   -8.548640
     19          1           0        0.529036   -0.389905   -7.334041
     20          1           0        2.054389    0.539030   -7.199118
     21          6           0        1.995711   -2.614472   -0.226791
     22          1           0        0.824780   -0.942808   -0.722327
     23          1           0        2.643729   -3.416825   -0.571906
     24          6           0        1.754536   -2.484814    1.187257
     25          6           0        2.331984   -3.444253    2.138501
     26          8           0        1.021369   -1.531306    1.639506
     27          6           0        3.125072   -4.542615    1.749447
     28          6           0        2.061708   -3.290261    3.532347
     29          1           0        1.047936   -1.760816    3.104999
     30          6           0        3.609347   -5.451136    2.673973
     31          1           0        3.364409   -4.705792    0.700013
     32          8           0        1.306270   -2.266076    3.979362
     33          6           0        2.556416   -4.216754    4.455230
     34          6           0        3.315939   -5.308821    4.043903
     35          1           0        4.225537   -6.285629    2.340322
     36          1           0        2.330283   -4.059447    5.510250
     37          6           0        3.797503   -6.319273    5.042906
     38          1           0        4.283994   -7.172302    4.553201
     39          1           0        4.514960   -5.875751    5.751278
     40          1           0        2.955985   -6.707014    5.637774
     41          6           0       -0.125143   -5.357144   -1.985949
     42          1           0       -0.527970   -4.338587   -1.872346
     43          1           0       -0.078757   -5.592973   -3.053307
     44          1           0        0.901309   -5.377715   -1.583273
     45          7           0       -0.969395   -6.334147   -1.315450
     46          6           0       -1.548169   -7.426475   -2.081782
     47          6           0       -1.162899   -6.267018    0.026685
     48          1           0       -1.112251   -8.398030   -1.797378
     49          1           0       -1.357464   -7.260637   -3.146910
     50          1           0       -2.637604   -7.469095   -1.932311
     51          6           0       -0.613448   -5.200221    0.796547
     52          6           0       -1.919540   -7.251077    0.721737
     53          6           0       -0.802158   -5.131367    2.157696
     54          1           0       -0.030978   -4.423285    0.307054
     55          1           0       -2.366223   -8.082073    0.181246
     56          6           0       -2.095476   -7.164898    2.086614
     57          6           0       -1.538425   -6.116474    2.856877
     58          1           0       -0.356477   -4.300802    2.704675
     59          1           0       -2.670615   -7.933390    2.604025
     60          6           0       -1.713370   -6.118159    4.273876
     61          6           0       -1.170938   -5.244528    5.174949
     62          1           0       -2.341859   -6.916192    4.679413
     63          6           0       -1.412104   -5.374186    6.588987
     64          1           0       -0.522910   -4.442175    4.829834
     65          6           0       -0.834666   -4.414747    7.540241
     66          8           0       -2.145271   -6.327694    7.041236
     67          6           0       -0.041568   -3.316385    7.151187
     68          6           0       -1.104932   -4.568739    8.934077
     69          1           0       -2.118704   -6.098184    8.506729
     70          6           0        0.442707   -2.407864    8.075713
     71          1           0        0.197759   -3.153208    6.101743
     72          8           0       -1.860380   -5.592924    9.381092
     73          6           0       -0.610224   -3.642246    9.856960
     74          6           0        0.149299   -2.550179    9.445643
     75          1           0        1.058887   -1.573371    7.742052
     76          1           0       -0.836367   -3.799543   10.911980
     77          6           0        0.630853   -1.539727   10.444646
     78          1           0        1.117354   -0.686698    9.954941
     79          1           0        1.348321   -1.983249   11.153018
     80          1           0       -0.210664   -1.151986   11.039504
 ---------------------------------------------------------------------

 SCF Done:  E(RwB97XD) =  -1804.97983478     A.U. after   31 cycles

 Excitation energies and oscillator strengths:

 Excited state symmetry could not be determined.
 Excited State   1:      Singlet-?Sym    3.2979 eV  375.95 nm  f=0.1509  <S**2>=0.000
     147 -> 151        0.13571
     147 -> 154       -0.10398
     149 -> 151        0.48713
     150 -> 152       -0.42923
 This state for optimization and/or second-order correction.
 Total Energy, E(TD-HF/TD-KS) =  -1804.85863885
 Copying the excited state density for this state as the 1-particle RhoCI density.

 Excited state symmetry could not be determined.
 Excited State   2:      Singlet-?Sym    3.3645 eV  368.51 nm  f=2.1824  <S**2>=0.000
     148 -> 152        0.11356
     149 -> 151        0.44215
     150 -> 151       -0.14652
     150 -> 152        0.47214

 Excited state symmetry could not be determined.
 Excited State   3:      Singlet-?Sym    3.5547 eV  348.79 nm  f=0.0521  <S**2>=0.000
     148 -> 151       -0.10451
     150 -> 151        0.66554
     150 -> 152        0.16351

 Excited state symmetry could not be determined.
 Excited State   4:      Singlet-?Sym    3.8336 eV  323.41 nm  f=0.0008  <S**2>=0.000
     141 -> 151        0.62876
     141 -> 154       -0.13043
     145 -> 152       -0.11802
     147 -> 151        0.14824

 Alpha  occ. eigenvalues --  -19.25511 -19.24090 -19.23123 -19.21855 -14.48715
 Alpha  occ. eigenvalues --  -14.46774 -10.38944 -10.36682 -10.36412 -10.36122
 Alpha  occ. eigenvalues --  -10.34504 -10.34380 -10.34192 -10.34077 -10.32918
 Alpha  occ. eigenvalues --  -10.32792 -10.32571 -10.31827 -10.31662 -10.31328
 Alpha  occ. eigenvalues --  -10.30984 -10.30926 -10.30750 -10.30666 -10.30220
 Alpha  occ. eigenvalues --  -10.30097 -10.29900 -10.29545 -10.29443 -10.29166
 Alpha  occ. eigenvalues --  -10.28756 -10.28616 -10.28559 -10.28406 -10.28400
 Alpha  occ. eigenvalues --  -10.28359 -10.28305 -10.28082 -10.27384 -10.27337
 Alpha  occ. eigenvalues --  -10.26732 -10.26517  -1.15919  -1.13610  -1.12046
 Alpha  occ. eigenvalues --   -1.09769  -1.08988  -1.07085  -0.98134  -0.96665
 Alpha  occ. eigenvalues --   -0.95784  -0.94708  -0.92077  -0.89732  -0.89320
 Alpha  occ. eigenvalues --   -0.88050  -0.87411  -0.86246  -0.85865  -0.85017
 Alpha  occ. eigenvalues --   -0.84382  -0.84092  -0.83150  -0.82356  -0.81599
 Alpha  occ. eigenvalues --   -0.79806  -0.79335  -0.77413  -0.74203  -0.72766
 Alpha  occ. eigenvalues --   -0.72095  -0.71487  -0.70489  -0.69929  -0.69437
 Alpha  occ. eigenvalues --   -0.68722  -0.67896  -0.66538  -0.65428  -0.64264
 Alpha  occ. eigenvalues --   -0.63255  -0.62151  -0.62008  -0.60008  -0.59897
 Alpha  occ. eigenvalues --   -0.59463  -0.58679  -0.57983  -0.57914  -0.57363
 Alpha  occ. eigenvalues --   -0.56977  -0.56886  -0.56233  -0.55927  -0.55091
 Alpha  occ. eigenvalues --   -0.54829  -0.54218  -0.53596  -0.53048  -0.52895
 Alpha  occ. eigenvalues --   -0.52804  -0.52572  -0.52331  -0.51728  -0.51198
 Alpha  occ. eigenvalues --   -0.50961  -0.50807  -0.50732  -0.50668  -0.50414
 Alpha  occ. eigenvalues --   -0.50148  -0.49635  -0.49365  -0.49147  -0.49015
 Alpha  occ. eigenvalues --   -0.48952  -0.48819  -0.47902  -0.47610  -0.47052
 Alpha  occ. eigenvalues --   -0.46934  -0.46907  -0.46756  -0.45870  -0.45614
 Alpha  occ. eigenvalues --   -0.45479  -0.44657  -0.44440  -0.44242  -0.43660
 Alpha  occ. eigenvalues --   -0.43588  -0.42684  -0.42254  -0.41895  -0.41324
 Alpha  occ. eigenvalues --   -0.40446  -0.40088  -0.39830  -0.36073  -0.35932
 Alpha  occ. eigenvalues --   -0.35081  -0.33965  -0.33714  -0.32913  -0.32832
 Alpha  occ. eigenvalues --   -0.31385  -0.30341  -0.28257  -0.27938  -0.25742
 Alpha virt. eigenvalues --   -0.03836  -0.01517   0.01794   0.02351   0.02890
 Alpha virt. eigenvalues --    0.03459   0.03636   0.03915   0.04385   0.04607
 Alpha virt. eigenvalues --    0.04973   0.05121   0.05509   0.05572   0.05837

 Mulliken charges:
               1
     1  C   -0.235730
     2  C   -0.540354
     3  C    0.057508
     4  H    0.213850
     5  C   -0.288998
     6  N    0.063982
     7  C    0.328845
     8  H    0.177404
     9  C   -0.090998
    10  H    0.204610
    11  C   -0.378577
    12  C   -0.381682
    13  C   -0.125454
    14  H    0.221682
    15  H    0.168726
    16  H    0.166961
    17  H    0.184207
    18  H    0.158488
    19  H    0.170863
    20  H    0.189844
    21  C   -0.386607
    22  H    0.269933
    23  H   -0.026386
    24  C   -0.076959
    25  C    0.590220
    26  O   -0.269890
    27  C   -0.473493
    28  C   -0.114375
    29  H    0.389732
    30  C   -0.581093
    31  H    0.156447
    32  O   -0.241892
    33  C   -0.048771
    34  C    0.197829
    35  H    0.206633
    36  H    0.184759
    37  C   -0.616987
    38  H    0.171413
    39  H    0.197742
    40  H    0.195189
    41  C   -0.723527
    42  H    0.241023
    43  H    0.151426
    44  H    0.215979
    45  N    0.186126
    46  C   -0.345102
    47  C    0.113105
    48  H    0.182168
    49  H    0.159029
    50  H    0.168599
    51  C   -0.227125
    52  C   -0.418111
    53  C   -0.202102
    54  H    0.163911
    55  H    0.173057
    56  C   -0.335665
    57  C    0.311831
    58  H    0.095312
    59  H    0.208774
    60  C   -0.104539
    61  C    0.180441
    62  H    0.257755
    63  C    0.135094
    64  H   -0.273598
    65  C    0.983340
    66  O   -0.373601
    67  C   -0.589500
    68  C   -0.255044
    69  H    0.402882
    70  C   -1.080839
    71  H    0.067009
    72  O   -0.340693
    73  C   -0.175600
    74  C    0.625929
    75  H    0.224811
    76  H    0.223664
    77  C   -0.551967
    78  H    0.171075
    79  H    0.189136
    80  H    0.176917
 Sum of Mulliken charges =   0.00000

 Dipole moment (field-independent basis, Debye):
    X=              5.3176    Y=              0.6902    Z=            -17.4793  Tot=             18.2833
 Quadrupole moment (field-independent basis, Debye-Ang):
   XX=           -248.3938   YY=           -246.0787   ZZ=           -252.9444
   XY=            -27.1491   XZ=             12.9976   YZ=             75.3976

 Normal termination of Gaussian 09 at Mon Nov 13 22:46:13 2017.
