 Gaussian 09, Revision D.01,
 Gaussian 09:  ES64L-G09RevD.01 24-Apr-2013

 ------------------------------------------
 #p wb97xd 6-311++G** td=(nstates=4) nosymm
 ------------------------------------------

 -----
 Title
 -----
 Symbolic Z-matrix:
 Charge =  0 Multiplicity = 1

                          Input orientation:
 ---------------------------------------------------------------------
 Center     Atomic      Atomic             Coordinates (Angstroms)
 Number     Number       Type             X           Y           Z
 ---------------------------------------------------------------------
      1          8           0       -1.557825   -4.987505   -5.467280
      2          6           0       -1.789017   -4.873739   -4.129922
      3          6           0       -1.917354   -3.882159   -6.303943
      4          6           0       -2.333500   -3.738275   -3.534507
      5          6           0       -1.431455   -5.990118   -3.346646
      6          1           0       -1.291808   -3.004361   -6.072200
      7          1           0       -1.733457   -4.214872   -7.330329
      8          1           0       -2.980192   -3.618875   -6.188697
      9          6           0       -2.510896   -3.703160   -2.142820
     10          1           0       -2.639191   -2.867075   -4.109278
     11          6           0       -1.620885   -5.942866   -1.979349
     12          1           0       -0.975526   -6.854205   -3.829040
     13          6           0       -2.153915   -4.813624   -1.322557
     14          8           0       -3.023326   -2.586300   -1.596078
     15          1           0       -1.325865   -6.811846   -1.394488
     16          6           0       -2.362741   -4.724851    0.133911
     17          1           0       -3.063137   -2.831579   -0.563227
     18          8           0       -2.878075   -3.634334    0.608434
     19          6           0       -1.988498   -5.790831    0.997676
     20          6           0       -2.142455   -5.677126    2.365206
     21          1           0       -1.573676   -6.701681    0.579279
     22          7           0       -1.847028   -6.613319    3.263371
     23          1           0       -2.537275   -4.745723    2.772010
     24          6           0       -1.343083   -7.913966    2.848301
     25          6           0       -2.001124   -6.383386    4.691547
     26          1           0       -2.033679   -8.361604    2.118342
     27          1           0       -1.282484   -8.567549    3.725501
     28          1           0       -0.345575   -7.811376    2.392174
     29          1           0       -2.689612   -7.128126    5.113404
     30          1           0       -2.383039   -5.372072    4.860978
     31          1           0       -1.024798   -6.477759    5.191760
 ---------------------------------------------------------------------

 SCF Done:  E(RwB97XD) =  -746.669636367     A.U. after   17 cycles

 Excitation energies and oscillator strengths:

 Excited state symmetry could not be determined.
 Excited State   1:      Singlet-?Sym    3.9418 eV  314.54 nm  f=0.6895  <S**2>=0.000
      59 -> 60         0.68034
 This state for optimization and/or second-order correction.
 Total Energy, E(TD-HF/TD-KS) =  -746.524778387
 Copying the excited state density for this state as the 1-particle RhoCI density.

 Excited state symmetry could not be determined.
 Excited State   2:      Singlet-?Sym    4.2691 eV  290.42 nm  f=0.0001  <S**2>=0.000
      56 -> 60         0.68444

 Excited state symmetry could not be determined.
 Excited State   3:      Singlet-?Sym    4.5739 eV  271.07 nm  f=0.2142  <S**2>=0.000
      57 -> 73        -0.11344
      58 -> 60         0.66173
      59 -> 66         0.15653

 Excited state symmetry could not be determined.
 Excited State   4:      Singlet-?Sym    5.0039 eV  247.77 nm  f=0.0435  <S**2>=0.000
      55 -> 60         0.11034
      57 -> 60         0.58280
      58 -> 60        -0.10167
      58 -> 66         0.15465
      59 -> 66         0.23139
      59 -> 73         0.10665

 Alpha  occ. eigenvalues --  -19.28255 -19.23277 -19.21862 -14.49721 -10.37150
 Alpha  occ. eigenvalues --  -10.35528 -10.35287 -10.34966 -10.34590 -10.34329
 Alpha  occ. eigenvalues --  -10.33883 -10.29701 -10.28365 -10.27621 -10.27582
 Alpha  occ. eigenvalues --  -10.27419  -1.17121  -1.13850  -1.09887  -1.09301
 Alpha  occ. eigenvalues --   -0.94898  -0.89540  -0.86266  -0.85553  -0.83875
 Alpha  occ. eigenvalues --   -0.81513  -0.79171  -0.71786  -0.69967  -0.68590
 Alpha  occ. eigenvalues --   -0.65198  -0.62977  -0.61772  -0.59515  -0.58986
 Alpha  occ. eigenvalues --   -0.58298  -0.56749  -0.55860  -0.54145  -0.52768
 Alpha  occ. eigenvalues --   -0.52175  -0.51805  -0.51519  -0.50322  -0.49959
 Alpha  occ. eigenvalues --   -0.49510  -0.48656  -0.46566  -0.46295  -0.46246
 Alpha  occ. eigenvalues --   -0.43936  -0.42696  -0.41715  -0.41414  -0.38677
 Alpha  occ. eigenvalues --   -0.33303  -0.31170  -0.30150  -0.27657
 Alpha virt. eigenvalues --    0.00304   0.02549   0.04189   0.04722   0.05448
 Alpha virt. eigenvalues --    0.05808   0.06314   0.06515   0.07261   0.07707
 Alpha virt. eigenvalues --    0.07899   0.08239   0.08386   0.08866   0.09676

 Mulliken charges:
               1
     1  O   -0.129242
     2  C   -0.978232
     3  C   -0.395615
     4  C   -0.100636
     5  C   -0.789346
     6  H    0.175788
     7  H    0.217581
     8  H    0.162541
     9  C    0.244743
    10  H    0.232467
    11  C   -1.568082
    12  H    0.243361
    13  C    2.655650
    14  O   -0.376692
    15  H    0.083119
    16  C   -0.760559
    17  H    0.434942
    18  O   -0.389950
    19  C   -0.559701
    20  C    0.773878
    21  H    0.108656
    22  N    0.126411
    23  H    0.235091
    24  C   -0.454780
    25  C   -0.304678
    26  H    0.187457
    27  H    0.203979
    28  H    0.197928
    29  H    0.183265
    30  H    0.152896
    31  H    0.187759
 Sum of Mulliken charges =   0.00000

 Dipole moment (field-independent basis, Debye):
    X=              1.6613    Y=             -4.7362    Z=              4.0934  Tot=              6.4767
 Quadrupole moment (field-independent basis, Debye-Ang):
   XX=           -106.5861   YY=            -45.5588   ZZ=            -61.6492
   XY=              1.2916   XZ=             -6.2177   YZ=            -35.8897

 Normal termination of Gaussian 09 at Fri Nov  3 01:48:00 2017.
