 Gaussian 09, Revision D.01,
 Gaussian 09:  ES64L-G09RevD.01 24-Apr-2013

 ------------------------------------------
 #p wb97xd 6-311++G** td=(nstates=4) nosymm
 ------------------------------------------

 -----
 Title
 -----
 Symbolic Z-matrix:
 Charge =  0 Multiplicity = 1

                          Input orientation:
 ---------------------------------------------------------------------
 Center     Atomic      Atomic             Coordinates (Angstroms)
 Number     Number       Type             X           Y           Z
 ---------------------------------------------------------------------
      1          8           0       -1.557825   -4.987505   -5.467280
      2          6           0       -1.789017   -4.873739   -4.129922
      3          6           0       -1.917354   -3.882159   -6.303943
      4          6           0       -2.333500   -3.738275   -3.534507
      5          6           0       -1.431455   -5.990118   -3.346646
      6          1           0       -1.291808   -3.004361   -6.072200
      7          1           0       -1.733457   -4.214872   -7.330329
      8          1           0       -2.980192   -3.618875   -6.188697
      9          6           0       -2.510896   -3.703160   -2.142820
     10          1           0       -2.639191   -2.867075   -4.109278
     11          6           0       -1.620885   -5.942866   -1.979349
     12          1           0       -0.975526   -6.854205   -3.829040
     13          6           0       -2.153915   -4.813624   -1.322557
     14          8           0       -3.023326   -2.586300   -1.596078
     15          1           0       -1.325865   -6.811846   -1.394488
     16          6           0       -2.362741   -4.724851    0.133911
     17          1           0       -3.063137   -2.831579   -0.563227
     18          8           0       -2.878075   -3.634334    0.608434
     19          6           0       -1.988498   -5.790831    0.997676
     20          6           0       -2.142455   -5.677126    2.365206
     21          1           0       -1.573676   -6.701681    0.579279
     22          7           0       -1.847028   -6.613319    3.263371
     23          1           0       -2.537275   -4.745723    2.772010
     24          6           0       -1.343083   -7.913966    2.848301
     25          6           0       -2.001124   -6.383386    4.691547
     26          1           0       -2.033679   -8.361604    2.118342
     27          1           0       -1.282484   -8.567549    3.725501
     28          1           0       -0.345575   -7.811376    2.392174
     29          1           0       -2.689612   -7.128126    5.113404
     30          1           0       -2.383039   -5.372072    4.860978
     31          1           0       -1.024798   -6.477759    5.191760
     32          1           0        0.345574   -4.077623   -2.392176
     33          6           0        1.343082   -3.975034   -2.848303
     34          7           0        1.847027   -5.275681   -3.263373
     35          1           0        2.033677   -3.527395   -2.118344
     36          1           0        1.282493   -3.321451   -3.725493
     37          6           0        2.142454   -6.211873   -2.365208
     38          6           0        2.001122   -5.505614   -4.691549
     39          6           0        1.988497   -6.098169   -0.997678
     40          1           0        2.537274   -7.143277   -2.772012
     41          1           0        2.689611   -4.760873   -5.113396
     42          1           0        2.383038   -6.516928   -4.860980
     43          1           0        1.024796   -5.411241   -5.191752
     44          6           0        2.362739   -7.164149   -0.133913
     45          1           0        1.573675   -5.187319   -0.579271
     46          8           0        2.878073   -8.254666   -0.608437
     47          6           0        2.153913   -7.075376    1.322564
     48          1           0        3.063136   -9.057421    0.563225
     49          6           0        2.510894   -8.185840    2.142818
     50          6           0        1.620884   -5.946134    1.979347
     51          8           0        3.023325   -9.302700    1.596076
     52          6           0        2.333499   -8.150725    3.534505
     53          6           0        1.431454   -5.898882    3.346653
     54          1           0        1.325863   -5.077154    1.394485
     55          6           0        1.789015   -7.015261    4.129919
     56          1           0        2.639189   -9.021924    4.109276
     57          1           0        0.975524   -5.034795    3.829048
     58          8           0        1.557824   -6.901495    5.467288
     59          6           0        1.917353   -8.006841    6.303941
     60          1           0        1.291806   -8.884639    6.072208
     61          1           0        1.733455   -7.674128    7.330326
     62          1           0        2.980190   -8.270125    6.188704
 ---------------------------------------------------------------------

 SCF Done:  E(RwB97XD) =  -1493.36909919     A.U. after   24 cycles

 Excitation energies and oscillator strengths:

 Excited state symmetry could not be determined.
 Excited State   1:      Singlet-?Sym    3.7678 eV  329.07 nm  f=0.0000  <S**2>=0.000
     117 ->120         0.39030
     118 ->119         0.56508
 This state for optimization and/or second-order correction.
 Total Energy, E(TD-HF/TD-KS) =  -1493.23063622
 Copying the excited state density for this state as the 1-particle RhoCI density.

 Excited state symmetry could not be determined.
 Excited State   2:      Singlet-?Sym    4.0617 eV  305.25 nm  f=1.2430  <S**2>=0.000
     117 ->119         0.48405
     118 ->120         0.46626

 Excited state symmetry could not be determined.
 Excited State   3:      Singlet-?Sym    4.3040 eV  288.07 nm  f=0.0006  <S**2>=0.000
     111 ->120        -0.46338
     112 ->119         0.50322

 Excited state symmetry could not be determined.
 Excited State   4:      Singlet-?Sym    4.3042 eV  288.06 nm  f=0.0000  <S**2>=0.000
     111 ->119        -0.50277
     112 ->120         0.46424

 Alpha  occ. eigenvalues --  -19.29649 -19.29649 -19.24003 -19.24003 -19.22076
 Alpha  occ. eigenvalues --  -19.22076 -14.49166 -14.49166 -10.37334 -10.37334
 Alpha  occ. eigenvalues --  -10.36564 -10.36564 -10.35836 -10.35836 -10.35191
 Alpha  occ. eigenvalues --  -10.35191 -10.34967 -10.34967 -10.33515 -10.33515
 Alpha  occ. eigenvalues --  -10.32772 -10.32772 -10.30426 -10.30426 -10.29185
 Alpha  occ. eigenvalues --  -10.29185 -10.28543 -10.28543 -10.28511 -10.28511
 Alpha  occ. eigenvalues --  -10.27244 -10.27244  -1.18513  -1.18513  -1.14456
 Alpha  occ. eigenvalues --   -1.14455  -1.10162  -1.10162  -1.08646  -1.08644
 Alpha  occ. eigenvalues --   -0.95876  -0.95869  -0.89373  -0.89248  -0.86976
 Alpha  occ. eigenvalues --   -0.86857  -0.84899  -0.84897  -0.84378  -0.84369
 Alpha  occ. eigenvalues --   -0.81907  -0.81900  -0.79442  -0.79412  -0.72329
 Alpha  occ. eigenvalues --   -0.72292  -0.70707  -0.70654  -0.68817  -0.68788
 Alpha  occ. eigenvalues --   -0.64973  -0.64858  -0.63088  -0.63034  -0.62359
 Alpha  occ. eigenvalues --   -0.62353  -0.60081  -0.60053  -0.58551  -0.58534
 Alpha  occ. eigenvalues --   -0.58180  -0.58138  -0.57255  -0.57182  -0.56910
 Alpha  occ. eigenvalues --   -0.56776  -0.54700  -0.54609  -0.53497  -0.53461
 Alpha  occ. eigenvalues --   -0.51849  -0.51843  -0.51748  -0.51657  -0.51137
 Alpha  occ. eigenvalues --   -0.51018  -0.50435  -0.50215  -0.50084  -0.49986
 Alpha  occ. eigenvalues --   -0.49331  -0.49313  -0.48795  -0.48775  -0.47208
 Alpha  occ. eigenvalues --   -0.47185  -0.47046  -0.46610  -0.46251  -0.46176
 Alpha  occ. eigenvalues --   -0.44827  -0.44757  -0.43794  -0.43760  -0.42256
 Alpha  occ. eigenvalues --   -0.42250  -0.41220  -0.41114  -0.39562  -0.39506
 Alpha  occ. eigenvalues --   -0.33674  -0.33667  -0.32311  -0.32096  -0.30581
 Alpha  occ. eigenvalues --   -0.30179  -0.28394  -0.27702
 Alpha virt. eigenvalues --   -0.00323   0.00415   0.03164   0.03265   0.04636
 Alpha virt. eigenvalues --    0.04729   0.04785   0.05160   0.05235   0.05753
 Alpha virt. eigenvalues --    0.05831   0.06268   0.06651   0.06930   0.07292

 Mulliken charges:
               1
     1  O   -0.080675
     2  C   -0.742266
     3  C   -0.381177
     4  C    0.096751
     5  C   -0.117117
     6  H    0.170077
     7  H    0.213433
     8  H    0.169881
     9  C   -0.064583
    10  H    0.259050
    11  C   -0.073955
    12  H    0.242539
    13  C    0.314818
    14  O   -0.325984
    15  H    0.203106
    16  C   -0.537429
    17  H    0.413521
    18  O   -0.385720
    19  C   -0.128414
    20  C   -0.032860
    21  H   -0.000004
    22  N    0.177560
    23  H    0.237515
    24  C   -0.326788
    25  C   -0.369005
    26  H    0.228082
    27  H    0.190561
    28  H    0.108303
    29  H    0.187828
    30  H    0.142778
    31  H    0.210173
    32  H    0.108303
    33  C   -0.326787
    34  N    0.177556
    35  H    0.228082
    36  H    0.190562
    37  C   -0.032855
    38  C   -0.368998
    39  C   -0.128424
    40  H    0.237516
    41  H    0.187828
    42  H    0.142778
    43  H    0.210171
    44  C   -0.537432
    45  H   -0.000003
    46  O   -0.385717
    47  C    0.314828
    48  H    0.413520
    49  C   -0.064584
    50  C   -0.073947
    51  O   -0.325985
    52  C    0.096760
    53  C   -0.117125
    54  H    0.203107
    55  C   -0.742276
    56  H    0.259051
    57  H    0.242540
    58  O   -0.080678
    59  C   -0.381178
    60  H    0.170076
    61  H    0.213431
    62  H    0.169880
 Sum of Mulliken charges =   0.00000

 Dipole moment (field-independent basis, Debye):
    X=              0.0000    Y=              0.0001    Z=             -0.0002  Tot=              0.0002
 Quadrupole moment (field-independent basis, Debye-Ang):
   XX=           -212.5379   YY=           -204.8765   ZZ=           -124.7565
   XY=             22.9456   XZ=            -11.4264   YZ=            -21.9258

 Normal termination of Gaussian 09 at Fri Nov  3 12:34:07 2017.
