 Gaussian 09, Revision D.01,
 Gaussian 09:  ES64L-G09RevD.01 24-Apr-2013

 ------------------------------------------
 #p wb97xd 6-311++G** td=(nstates=4) nosymm
 ------------------------------------------

 -----
 Title
 -----
 Symbolic Z-matrix:
 Charge =  0 Multiplicity = 1

                          Input orientation:
 ---------------------------------------------------------------------
 Center     Atomic      Atomic             Coordinates (Angstroms)
 Number     Number       Type             X           Y           Z
 ---------------------------------------------------------------------
      1          1           0        0.345574   -4.077623   -2.392176
      2          6           0        1.343082   -3.975034   -2.848303
      3          7           0        1.847027   -5.275681   -3.263373
      4          1           0        2.033677   -3.527395   -2.118344
      5          1           0        1.282493   -3.321451   -3.725493
      6          6           0        2.142454   -6.211873   -2.365208
      7          6           0        2.001122   -5.505614   -4.691549
      8          6           0        1.988497   -6.098169   -0.997678
      9          1           0        2.537274   -7.143277   -2.772012
     10          1           0        2.689611   -4.760873   -5.113396
     11          1           0        2.383038   -6.516928   -4.860980
     12          1           0        1.024796   -5.411241   -5.191752
     13          6           0        2.362739   -7.164149   -0.133913
     14          1           0        1.573675   -5.187319   -0.579271
     15          8           0        2.878073   -8.254666   -0.608437
     16          6           0        2.153913   -7.075376    1.322564
     17          1           0        3.063136   -9.057421    0.563225
     18          6           0        2.510894   -8.185840    2.142818
     19          6           0        1.620884   -5.946134    1.979347
     20          8           0        3.023325   -9.302700    1.596076
     21          6           0        2.333499   -8.150725    3.534505
     22          6           0        1.431454   -5.898882    3.346653
     23          1           0        1.325863   -5.077154    1.394485
     24          6           0        1.789015   -7.015261    4.129919
     25          1           0        2.639189   -9.021924    4.109276
     26          1           0        0.975524   -5.034795    3.829048
     27          8           0        1.557824   -6.901495    5.467288
     28          6           0        1.917353   -8.006841    6.303941
     29          1           0        1.291806   -8.884639    6.072208
     30          1           0        1.733455   -7.674128    7.330326
     31          1           0        2.980190   -8.270125    6.188704
 ---------------------------------------------------------------------

 SCF Done:  E(RwB97XD) =  -746.669636341     A.U. after   17 cycles

 Excitation energies and oscillator strengths:

 Excited state symmetry could not be determined.
 Excited State   1:      Singlet-?Sym    3.9418 eV  314.54 nm  f=0.6894  <S**2>=0.000
      59 -> 60         0.68034
 This state for optimization and/or second-order correction.
 Total Energy, E(TD-HF/TD-KS) =  -746.524778041
 Copying the excited state density for this state as the 1-particle RhoCI density.

 Excited state symmetry could not be determined.
 Excited State   2:      Singlet-?Sym    4.2691 eV  290.42 nm  f=0.0001  <S**2>=0.000
      56 -> 60         0.68444

 Excited state symmetry could not be determined.
 Excited State   3:      Singlet-?Sym    4.5739 eV  271.07 nm  f=0.2142  <S**2>=0.000
      57 -> 73        -0.11344
      58 -> 60         0.66173
      59 -> 66         0.15653

 Excited state symmetry could not be determined.
 Excited State   4:      Singlet-?Sym    5.0039 eV  247.77 nm  f=0.0435  <S**2>=0.000
      55 -> 60         0.11034
      57 -> 60         0.58280
      58 -> 60        -0.10165
      58 -> 66        -0.15465
      59 -> 66         0.23140
      59 -> 73        -0.10665

 Alpha  occ. eigenvalues --  -19.28255 -19.23277 -19.21862 -14.49721 -10.37150
 Alpha  occ. eigenvalues --  -10.35528 -10.35287 -10.34966 -10.34590 -10.34329
 Alpha  occ. eigenvalues --  -10.33883 -10.29701 -10.28365 -10.27621 -10.27582
 Alpha  occ. eigenvalues --  -10.27419  -1.17121  -1.13850  -1.09887  -1.09301
 Alpha  occ. eigenvalues --   -0.94898  -0.89540  -0.86266  -0.85553  -0.83875
 Alpha  occ. eigenvalues --   -0.81512  -0.79171  -0.71786  -0.69967  -0.68590
 Alpha  occ. eigenvalues --   -0.65198  -0.62977  -0.61772  -0.59515  -0.58986
 Alpha  occ. eigenvalues --   -0.58298  -0.56749  -0.55860  -0.54145  -0.52768
 Alpha  occ. eigenvalues --   -0.52175  -0.51805  -0.51519  -0.50322  -0.49959
 Alpha  occ. eigenvalues --   -0.49510  -0.48656  -0.46566  -0.46295  -0.46246
 Alpha  occ. eigenvalues --   -0.43936  -0.42696  -0.41715  -0.41415  -0.38677
 Alpha  occ. eigenvalues --   -0.33303  -0.31170  -0.30150  -0.27657
 Alpha virt. eigenvalues --    0.00304   0.02549   0.04189   0.04722   0.05448
 Alpha virt. eigenvalues --    0.05808   0.06314   0.06515   0.07261   0.07707
 Alpha virt. eigenvalues --    0.07899   0.08239   0.08386   0.08866   0.09676

 Mulliken charges:
               1
     1  H    0.197928
     2  C   -0.454779
     3  N    0.126408
     4  H    0.187458
     5  H    0.203979
     6  C    0.773881
     7  C   -0.304673
     8  C   -0.559713
     9  H    0.235091
    10  H    0.183264
    11  H    0.152895
    12  H    0.187759
    13  C   -0.760583
    14  H    0.108654
    15  O   -0.389947
    16  C    2.655676
    17  H    0.434941
    18  C    0.244756
    19  C   -1.568081
    20  O   -0.376693
    21  C   -0.100629
    22  C   -0.789353
    23  H    0.083120
    24  C   -0.978234
    25  H    0.232468
    26  H    0.243361
    27  O   -0.129247
    28  C   -0.395616
    29  H    0.175786
    30  H    0.217579
    31  H    0.162539
 Sum of Mulliken charges =   0.00000

 Dipole moment (field-independent basis, Debye):
    X=             -1.6613    Y=              4.7363    Z=             -4.0937  Tot=              6.4769
 Quadrupole moment (field-independent basis, Debye-Ang):
   XX=           -106.5860   YY=           -158.1774   ZZ=            -61.6504
   XY=             21.0427   XZ=             -6.2182   YZ=             12.7790

 Normal termination of Gaussian 09 at Fri Nov  3 01:05:44 2017.
