 Gaussian 09, Revision D.01,
 Gaussian 09:  ES64L-G09RevD.01 24-Apr-2013

 ------------------------------------------
 #p wb97xd/6-311++G** td=(nstates=2) nosymm
 ------------------------------------------

 -----
 Title
 -----
 Symbolic Z-matrix:
 Charge =  0 Multiplicity = 1

                          Input orientation:
 ---------------------------------------------------------------------
 Center     Atomic      Atomic             Coordinates (Angstroms)
 Number     Number       Type             X           Y           Z
 ---------------------------------------------------------------------
      1          6           0       -0.045604   -3.212643   -0.673042
      2          6           0       -1.163557   -4.037551   -0.999057
      3          1           0       -0.121291   -2.475288    0.121883
      4          6           0        1.146608   -3.335524   -1.348586
      5          6           0       -0.997931   -4.974953   -2.055672
      6          7           0       -2.337452   -3.933160   -0.324579
      7          6           0        1.320601   -4.270503   -2.399224
      8          1           0        1.971105   -2.682196   -1.060472
      9          6           0        0.202155   -5.074774   -2.725295
     10          1           0       -1.826104   -5.611893   -2.356233
     11          6           0       -3.451039   -4.817588   -0.638286
     12          6           0       -2.482782   -2.951131    0.738607
     13          6           0        2.521300   -4.396929   -3.164451
     14          1           0        0.299534   -5.792287   -3.541330
     15          1           0       -3.150286   -5.872565   -0.549647
     16          1           0       -4.268925   -4.626441    0.063239
     17          1           0       -3.818958   -4.648925   -1.662177
     18          1           0       -2.290162   -1.933406    0.365237
     19          1           0       -3.502453   -2.991283    1.132588
     20          1           0       -1.783201   -3.152381    1.563457
     21          6           0        3.704177   -3.730044   -2.976341
     22          1           0        2.478430   -5.091951   -4.010014
     23          6           0        4.824246   -3.904072   -3.862622
     24          1           0        3.810173   -3.042685   -2.139497
     25          6           0        6.116034   -3.241308   -3.594826
     26          8           0        4.726790   -4.644034   -4.908669
     27          6           0        7.196441   -3.444502   -4.505463
     28          6           0        6.353060   -2.418884   -2.472996
     29          1           0        6.047681   -4.528914   -5.530262
     30          6           0        8.449310   -2.862065   -4.256098
     31          8           0        7.039043   -4.198267   -5.611204
     32          6           0        7.588797   -1.834009   -2.241935
     33          1           0        5.552651   -2.221827   -1.761605
     34          6           0        8.641937   -2.065551   -3.137064
     35          1           0        9.257308   -3.069135   -4.957770
     36          1           0        7.737617   -1.196134   -1.371176
     37          1           0        9.619574   -1.619592   -2.947297
     38          6           0       -4.460431    1.697999   -1.116637
     39          6           0       -5.713299    2.280435   -1.366002
     40          6           0       -3.380024    1.901192   -2.027274
     41          8           0       -4.303033    0.944233   -0.010897
     42          6           0       -5.905928    3.076949   -2.485036
     43          1           0       -6.521299    2.073365   -0.664330
     44          6           0       -3.617051    2.723616   -3.149103
     45          6           0       -2.088235    1.238428   -1.759477
     46          1           0       -3.311670    0.613585   -0.091837
     47          6           0       -4.852787    3.308490   -3.380165
     48          1           0       -6.883564    3.522908   -2.674803
     49          1           0       -2.816641    2.920673   -3.860494
     50          6           0       -0.968168    1.412456   -2.645759
     51          8           0       -1.990780    0.498466   -0.713431
     52          1           0       -5.001607    3.946366   -4.250924
     53          6           0        0.214710    0.745571   -2.457648
     54          1           0       -1.074164    2.099815   -3.482603
     55          6           0        1.415410    0.871997   -3.222876
     56          1           0        0.257579    0.050548   -1.612086
     57          6           0        1.589403    1.806976   -4.273513
     58          6           0        2.533855    0.067726   -2.896805
     59          1           0        0.764905    2.460304   -4.561628
     60          6           0        2.781614    1.929857   -4.949058
     61          1           0        2.436477   -0.649787   -2.080769
     62          6           0        3.733941    0.167547   -3.566428
     63          6           0        3.899567    1.104949   -4.623043
     64          1           0        2.857302    2.667212   -5.743983
     65          1           0        4.562114   -0.469393   -3.265867
     66          7           0        5.073463    1.209340   -5.297521
     67          6           0        5.218793    2.191367   -6.360708
     68          6           0        6.187049    0.324912   -4.983814
     69          1           0        5.026173    3.209094   -5.987337
     70          1           0        6.238463    2.151217   -6.754687
     71          1           0        4.519212    1.990119   -7.185558
     72          1           0        5.886297   -0.730065   -5.072452
     73          1           0        7.004935    0.516059   -5.685338
     74          1           0        6.554969    0.493576   -3.959923
 ---------------------------------------------------------------------

 SCF Done:  E(RwB97XD) =  -1726.34394839     A.U. after   25 cycles

 Excitation energies and oscillator strengths:

 Excited state symmetry could not be determined.
 Excited State   1:      Singlet-?Sym    3.1289 eV  396.25 nm  f=0.0188  <S**2>=0.000
     141 -> 144       -0.43484
     142 -> 143        0.48597
 This state for optimization and/or second-order correction.
 Total Energy, E(TD-HF/TD-KS) =  -1726.22896238
 Copying the excited state density for this state as the 1-particle RhoCI density.

 Excited state symmetry could not be determined.
 Excited State   2:      Singlet-?Sym    3.3460 eV  370.55 nm  f=2.2162  <S**2>=0.000
     140 -> 144        0.10315
     141 -> 143        0.34571
     141 -> 144        0.32562
     142 -> 143        0.29925
     142 -> 144       -0.33368

 Alpha  occ. eigenvalues --  -19.25068 -19.24963 -19.23935 -19.23801 -14.47363
 Alpha  occ. eigenvalues --  -14.47224 -10.38741 -10.38710 -10.36351 -10.35965
 Alpha  occ. eigenvalues --  -10.35237 -10.35133 -10.33121 -10.32918 -10.32316
 Alpha  occ. eigenvalues --  -10.32067 -10.32012 -10.31993 -10.31118 -10.30852
 Alpha  occ. eigenvalues --  -10.30748 -10.30734 -10.30692 -10.30672 -10.30564
 Alpha  occ. eigenvalues --  -10.30562 -10.30309 -10.30239 -10.29950 -10.29885
 Alpha  occ. eigenvalues --  -10.29743 -10.29561 -10.29471 -10.29370 -10.29353
 Alpha  occ. eigenvalues --  -10.29238 -10.29112 -10.29075 -10.28877 -10.28697
 Alpha  occ. eigenvalues --   -1.15626  -1.15613  -1.11742  -1.11687  -1.07536
 Alpha  occ. eigenvalues --   -1.07364  -0.96987  -0.96917  -0.96631  -0.96114
 Alpha  occ. eigenvalues --   -0.91042  -0.91000  -0.87923  -0.87607  -0.86816
 Alpha  occ. eigenvalues --   -0.86704  -0.85030  -0.84889  -0.84399  -0.84030
 Alpha  occ. eigenvalues --   -0.83468  -0.83335  -0.79185  -0.79125  -0.75065
 Alpha  occ. eigenvalues --   -0.74857  -0.72411  -0.72217  -0.71519  -0.71315
 Alpha  occ. eigenvalues --   -0.69902  -0.69553  -0.67952  -0.67857  -0.64738
 Alpha  occ. eigenvalues --   -0.64672  -0.63185  -0.62978  -0.61670  -0.61533
 Alpha  occ. eigenvalues --   -0.60585  -0.60286  -0.58724  -0.58597  -0.58078
 Alpha  occ. eigenvalues --   -0.57904  -0.57081  -0.56888  -0.56231  -0.56029
 Alpha  occ. eigenvalues --   -0.55486  -0.54948  -0.54412  -0.54309  -0.52893
 Alpha  occ. eigenvalues --   -0.52774  -0.52701  -0.52275  -0.52224  -0.51926
 Alpha  occ. eigenvalues --   -0.51821  -0.51796  -0.51168  -0.51077  -0.50514
 Alpha  occ. eigenvalues --   -0.50262  -0.49724  -0.49596  -0.48264  -0.48079
 Alpha  occ. eigenvalues --   -0.47806  -0.47661  -0.47617  -0.47393  -0.47134
 Alpha  occ. eigenvalues --   -0.47061  -0.46668  -0.46623  -0.46426  -0.46161
 Alpha  occ. eigenvalues --   -0.45843  -0.45740  -0.43237  -0.42959  -0.42813
 Alpha  occ. eigenvalues --   -0.42496  -0.42380  -0.42192  -0.41111  -0.40988
 Alpha  occ. eigenvalues --   -0.35300  -0.35107  -0.34877  -0.34760  -0.34746
 Alpha  occ. eigenvalues --   -0.34584  -0.34376  -0.33972  -0.30457  -0.30027
 Alpha  occ. eigenvalues --   -0.26762  -0.26689
 Alpha virt. eigenvalues --   -0.03369  -0.03260   0.02648   0.03011   0.03099
 Alpha virt. eigenvalues --    0.03567   0.03827   0.04258   0.04438   0.04617
 Alpha virt. eigenvalues --    0.04881   0.05025   0.05329   0.05623   0.05904

 Mulliken charges:
               1
     1  C   -0.262819
     2  C   -0.401572
     3  H    0.263193
     4  C   -0.102431
     5  C   -0.297516
     6  N    0.108503
     7  C    0.285602
     8  H    0.130511
     9  C   -0.229259
    10  H    0.195864
    11  C   -0.358660
    12  C   -0.404372
    13  C   -0.003950
    14  H    0.207283
    15  H    0.171222
    16  H    0.165600
    17  H    0.179683
    18  H    0.127670
    19  H    0.158354
    20  H    0.184242
    21  C    0.031390
    22  H    0.274940
    23  C   -0.284707
    24  H   -0.236106
    25  C    0.456320
    26  O   -0.308274
    27  C    0.150323
    28  C   -0.370777
    29  H    0.368954
    30  C   -0.259173
    31  O   -0.281708
    32  C   -0.169986
    33  H    0.220599
    34  C   -0.438253
    35  H    0.259968
    36  H    0.220021
    37  H    0.216932
    38  C    0.047155
    39  C   -0.637884
    40  C    1.780335
    41  O   -0.264565
    42  C   -0.309429
    43  H    0.228895
    44  C   -1.094461
    45  C   -0.222660
    46  H    0.446772
    47  C   -0.557140
    48  H    0.208837
    49  H    0.129031
    50  C   -0.101131
    51  O   -0.297792
    52  H    0.224167
    53  C    0.179328
    54  H   -0.177770
    55  C    0.771919
    56  H    0.168519
    57  C   -0.385390
    58  C   -0.211490
    59  H    0.186500
    60  C   -0.606508
    61  H   -0.002656
    62  C    0.275306
    63  C   -0.465668
    64  H    0.219018
    65  H    0.064388
    66  N    0.208569
    67  C   -0.333748
    68  C   -0.601757
    69  H    0.166888
    70  H    0.173202
    71  H    0.171808
    72  H    0.283930
    73  H    0.135102
    74  H    0.232769
 Sum of Mulliken charges =   0.00000

 Dipole moment (field-independent basis, Debye):
    X=             -0.3216    Y=              2.8081    Z=             -0.2220  Tot=              2.8352
 Quadrupole moment (field-independent basis, Debye-Ang):
   XX=           -220.1356   YY=           -240.8953   ZZ=           -235.9691
   XY=             42.9289   XZ=              9.5142   YZ=            -40.0037

 Normal termination of Gaussian 09 at Thu Nov  2 15:43:00 2017.
