 Gaussian 09, Revision D.01,
 Gaussian 09:  ES64L-G09RevD.01 24-Apr-2013

 ----------------------------------
 #p HF/STO-3G td=(nstates=2) nosymm
 ----------------------------------

 -----
 Title
 -----
 Symbolic Z-matrix:
 Charge =  0 Multiplicity = 1

                          Input orientation:
 ---------------------------------------------------------------------
 Center     Atomic      Atomic             Coordinates (Angstroms)
 Number     Number       Type             X           Y           Z
 ---------------------------------------------------------------------
      1          6           0       -0.045604   -3.212643   -0.673042
      2          6           0       -1.163557   -4.037551   -0.999057
      3          1           0       -0.121291   -2.475288    0.121883
      4          6           0        1.146608   -3.335524   -1.348586
      5          6           0       -0.997931   -4.974953   -2.055672
      6          7           0       -2.337452   -3.933160   -0.324579
      7          6           0        1.320601   -4.270503   -2.399224
      8          1           0        1.971105   -2.682196   -1.060472
      9          6           0        0.202155   -5.074774   -2.725295
     10          1           0       -1.826104   -5.611893   -2.356233
     11          6           0       -3.451039   -4.817588   -0.638286
     12          6           0       -2.482782   -2.951131    0.738607
     13          6           0        2.521300   -4.396929   -3.164451
     14          1           0        0.299534   -5.792287   -3.541330
     15          1           0       -3.150286   -5.872565   -0.549647
     16          1           0       -4.268925   -4.626441    0.063239
     17          1           0       -3.818958   -4.648925   -1.662177
     18          1           0       -2.290162   -1.933406    0.365237
     19          1           0       -3.502453   -2.991283    1.132588
     20          1           0       -1.783201   -3.152381    1.563457
     21          6           0        3.704177   -3.730044   -2.976341
     22          1           0        2.478430   -5.091951   -4.010014
     23          6           0        4.824246   -3.904072   -3.862622
     24          1           0        3.810173   -3.042685   -2.139497
     25          6           0        6.116034   -3.241308   -3.594826
     26          8           0        4.726790   -4.644034   -4.908669
     27          6           0        7.196441   -3.444502   -4.505463
     28          6           0        6.353060   -2.418884   -2.472996
     29          1           0        6.047681   -4.528914   -5.530262
     30          6           0        8.449310   -2.862065   -4.256098
     31          8           0        7.039043   -4.198267   -5.611204
     32          6           0        7.588797   -1.834009   -2.241935
     33          1           0        5.552651   -2.221827   -1.761605
     34          6           0        8.641937   -2.065551   -3.137064
     35          1           0        9.257308   -3.069135   -4.957770
     36          1           0        7.737617   -1.196134   -1.371176
     37          1           0        9.619574   -1.619592   -2.947297
     38          6           0       -2.781614   -1.929857    4.949057
     39          6           0       -3.899567   -1.104949    4.623044
     40          1           0       -2.857302   -2.667213    5.743983
     41          6           0       -1.589403   -1.806976    4.273514
     42          6           0       -3.733940   -0.167547    3.566427
     43          7           0       -5.073462   -1.209339    5.297522
     44          6           0       -1.415409   -0.871998    3.222876
     45          1           0       -0.764905   -2.460304    4.561627
     46          6           0       -2.533855   -0.067726    2.896805
     47          1           0       -4.562114    0.469394    3.265867
     48          6           0       -5.218792   -2.191368    6.360707
     49          6           0       -6.187049   -0.324912    4.983813
     50          6           0       -0.214710   -0.745572    2.457648
     51          1           0       -2.436476    0.649787    2.080770
     52          1           0       -5.026172   -3.209094    5.987337
     53          1           0       -6.238463   -2.151217    6.754688
     54          1           0       -4.519211   -1.990120    7.185557
     55          1           0       -7.004935   -0.516059    5.685339
     56          1           0       -6.554969   -0.493575    3.959922
     57          1           0       -5.886296    0.730066    5.072453
     58          6           0        0.968167   -1.412456    2.645758
     59          1           0       -0.257580   -0.050548    1.612086
     60          6           0        2.088236   -1.238428    1.759478
     61          1           0        1.074163   -2.099815    3.482603
     62          6           0        3.380024   -1.901192    2.027274
     63          8           0        1.990780   -0.498466    0.713431
     64          6           0        4.460431   -1.697998    1.116638
     65          6           0        3.617050   -2.723616    3.149104
     66          1           0        3.311671   -0.613585    0.091837
     67          8           0        4.303032   -0.944233    0.010896
     68          6           0        5.713299   -2.280435    1.366002
     69          6           0        4.852786   -3.308490    3.380164
     70          1           0        2.816640   -2.920673    3.860494
     71          6           0        5.905928   -3.076949    2.485036
     72          1           0        6.521299   -2.073366    0.664330
     73          1           0        5.001608   -3.946366    4.250925
     74          1           0        6.883564   -3.522908    2.674804
 ---------------------------------------------------------------------

 SCF Done:  E(RHF) =  -1694.24889984     A.U. after   15 cycles

 Excitation energies and oscillator strengths:

 Excited state symmetry could not be determined.
 Excited State   1:      Singlet-?Sym    3.8094 eV  325.47 nm  f=0.0002  <S**2>=0.000
     128 ->144        -0.14274
     135 ->144         0.11726
     136 ->144        -0.56689
     136 ->146         0.19512
     136 ->152         0.16857
     136 ->154         0.16631
 This state for optimization and/or second-order correction.
 Total Energy, E(TD-HF/TD-KS) =  -1694.10890601
 Copying the excited state density for this state as the 1-particle RhoCI density.

 Excited state symmetry could not be determined.
 Excited State   2:      Singlet-?Sym    3.8125 eV  325.21 nm  f=0.0002  <S**2>=0.000
     125 ->143         0.14380
     132 ->143         0.57798
     132 ->145        -0.19984
     132 ->151        -0.16889
     132 ->153        -0.17028

 Alpha  occ. eigenvalues --  -20.24835 -20.23803 -20.22972 -20.21971 -15.38348
 Alpha  occ. eigenvalues --  -15.36947 -11.13339 -11.11496 -11.11436 -11.11186
 Alpha  occ. eigenvalues --  -11.11145 -11.10179 -11.09903 -11.09813 -11.09355
 Alpha  occ. eigenvalues --  -11.07656 -11.06731 -11.05390 -11.05317 -11.04822
 Alpha  occ. eigenvalues --  -11.04114 -11.04007 -11.03801 -11.03678 -11.03637
 Alpha  occ. eigenvalues --  -11.02908 -11.02817 -11.02576 -11.02426 -11.02146
 Alpha  occ. eigenvalues --  -11.02081 -11.02027 -11.01404 -11.01273 -11.01206
 Alpha  occ. eigenvalues --  -11.01044 -11.00654 -11.00171 -10.99578 -10.99422
 Alpha  occ. eigenvalues --   -1.32204  -1.30376  -1.27566  -1.25735  -1.22690
 Alpha  occ. eigenvalues --   -1.21360  -1.10465  -1.08768  -1.08308  -1.06571
 Alpha  occ. eigenvalues --   -1.03113  -1.01319  -0.98227  -0.98021  -0.96654
 Alpha  occ. eigenvalues --   -0.96386  -0.95179  -0.94761  -0.93599  -0.93550
 Alpha  occ. eigenvalues --   -0.93448  -0.91805  -0.88157  -0.86654  -0.82410
 Alpha  occ. eigenvalues --   -0.80763  -0.79296  -0.78294  -0.77616  -0.76618
 Alpha  occ. eigenvalues --   -0.75182  -0.73553  -0.73463  -0.71868  -0.69301
 Alpha  occ. eigenvalues --   -0.67869  -0.67544  -0.66358  -0.65196  -0.63500
 Alpha  occ. eigenvalues --   -0.62558  -0.62503  -0.61782  -0.61341  -0.60984
 Alpha  occ. eigenvalues --   -0.60862  -0.60278  -0.59314  -0.59209  -0.57737
 Alpha  occ. eigenvalues --   -0.57549  -0.56239  -0.55820  -0.55517  -0.55392
 Alpha  occ. eigenvalues --   -0.54786  -0.54512  -0.54336  -0.54146  -0.53176
 Alpha  occ. eigenvalues --   -0.53037  -0.51934  -0.51620  -0.51405  -0.51101
 Alpha  occ. eigenvalues --   -0.50763  -0.50600  -0.50088  -0.49725  -0.49228
 Alpha  occ. eigenvalues --   -0.48585  -0.47911  -0.47347  -0.47235  -0.46574
 Alpha  occ. eigenvalues --   -0.46217  -0.45766  -0.45298  -0.45053  -0.44823
 Alpha  occ. eigenvalues --   -0.43629  -0.43376  -0.42943  -0.41329  -0.40655
 Alpha  occ. eigenvalues --   -0.39886  -0.39424  -0.38796  -0.38312  -0.37712
 Alpha  occ. eigenvalues --   -0.31358  -0.30715  -0.30589  -0.29672  -0.28925
 Alpha  occ. eigenvalues --   -0.28899  -0.27911  -0.26220  -0.22514  -0.20771
 Alpha  occ. eigenvalues --   -0.20608  -0.19000
 Alpha virt. eigenvalues --    0.14755   0.16558   0.23099   0.24828   0.26021
 Alpha virt. eigenvalues --    0.27675   0.28503   0.30276   0.31474   0.33163
 Alpha virt. eigenvalues --    0.40281   0.42058   0.50369   0.52084   0.52471

 Mulliken charges:
               1
     1  C   -0.102582
     2  C    0.142049
     3  H    0.061390
     4  C   -0.036126
     5  C   -0.103847
     6  N   -0.284812
     7  C   -0.038249
     8  H    0.067926
     9  C   -0.035919
    10  H    0.057162
    11  C   -0.063746
    12  C   -0.063997
    13  C   -0.014361
    14  H    0.063346
    15  H    0.069770
    16  H    0.072995
    17  H    0.068208
    18  H    0.069416
    19  H    0.072607
    20  H    0.070380
    21  C   -0.109540
    22  H    0.078603
    23  C    0.188302
    24  H    0.066824
    25  C   -0.082253
    26  O   -0.285357
    27  C    0.151256
    28  C   -0.043003
    29  H    0.261089
    30  C   -0.100759
    31  O   -0.333877
    32  C   -0.091769
    33  H    0.078346
    34  C   -0.039785
    35  H    0.064386
    36  H    0.055936
    37  H    0.062574
    38  C   -0.101005
    39  C    0.144098
    40  H    0.060359
    41  C   -0.036855
    42  C   -0.103412
    43  N   -0.283111
    44  C   -0.040749
    45  H    0.065695
    46  C   -0.035765
    47  H    0.060375
    48  C   -0.064473
    49  C   -0.064132
    50  C   -0.015187
    51  H    0.065141
    52  H    0.069844
    53  H    0.075968
    54  H    0.069703
    55  H    0.076277
    56  H    0.068384
    57  H    0.071795
    58  C   -0.109937
    59  H    0.080773
    60  C    0.188404
    61  H    0.061085
    62  C   -0.080919
    63  O   -0.283414
    64  C    0.150226
    65  C   -0.040229
    66  H    0.262028
    67  O   -0.334439
    68  C   -0.098617
    69  C   -0.089378
    70  H    0.060555
    71  C   -0.037197
    72  H    0.070688
    73  H    0.057142
    74  H    0.067697
 Sum of Mulliken charges =   0.00000

 Dipole moment (field-independent basis, Debye):
    X=            -11.4731    Y=              0.1970    Z=              8.9333  Tot=             14.5422
 Quadrupole moment (field-independent basis, Debye-Ang):
   XX=           -225.1661   YY=           -220.5241   ZZ=           -220.8830
   XY=             31.4198   XZ=             12.0962   YZ=            -27.7679

 Normal termination of Gaussian 09 at Wed Nov  1 19:18:17 2017.
