 Gaussian 09, Revision D.01,
 Gaussian 09:  ES64L-G09RevD.01 24-Apr-2013

 ----------------------------------
 #p HF/STO-3G td=(nstates=2) nosymm
 ----------------------------------

 -----
 Title
 -----
 Symbolic Z-matrix:
 Charge =  0 Multiplicity = 1

                          Input orientation:
 ---------------------------------------------------------------------
 Center     Atomic      Atomic             Coordinates (Angstroms)
 Number     Number       Type             X           Y           Z
 ---------------------------------------------------------------------
      1          6           0       -2.781614   -1.929857    4.949057
      2          6           0       -3.899567   -1.104949    4.623044
      3          1           0       -2.857302   -2.667213    5.743983
      4          6           0       -1.589403   -1.806976    4.273514
      5          6           0       -3.733940   -0.167547    3.566427
      6          7           0       -5.073462   -1.209339    5.297522
      7          6           0       -1.415409   -0.871998    3.222876
      8          1           0       -0.764905   -2.460304    4.561627
      9          6           0       -2.533855   -0.067726    2.896805
     10          1           0       -4.562114    0.469394    3.265867
     11          6           0       -5.218792   -2.191368    6.360707
     12          6           0       -6.187049   -0.324912    4.983813
     13          6           0       -0.214710   -0.745572    2.457648
     14          1           0       -2.436476    0.649787    2.080770
     15          1           0       -5.026172   -3.209094    5.987337
     16          1           0       -6.238463   -2.151217    6.754688
     17          1           0       -4.519211   -1.990120    7.185557
     18          1           0       -7.004935   -0.516059    5.685339
     19          1           0       -6.554969   -0.493575    3.959922
     20          1           0       -5.886296    0.730066    5.072453
     21          6           0        0.968167   -1.412456    2.645758
     22          1           0       -0.257580   -0.050548    1.612086
     23          6           0        2.088236   -1.238428    1.759478
     24          1           0        1.074163   -2.099815    3.482603
     25          6           0        3.380024   -1.901192    2.027274
     26          8           0        1.990780   -0.498466    0.713431
     27          6           0        4.460431   -1.697998    1.116638
     28          6           0        3.617050   -2.723616    3.149104
     29          1           0        3.311671   -0.613585    0.091837
     30          8           0        4.303032   -0.944233    0.010896
     31          6           0        5.713299   -2.280435    1.366002
     32          6           0        4.852786   -3.308490    3.380164
     33          1           0        2.816640   -2.920673    3.860494
     34          6           0        5.905928   -3.076949    2.485036
     35          1           0        6.521299   -2.073366    0.664330
     36          1           0        5.001608   -3.946366    4.250925
     37          1           0        6.883564   -3.522908    2.674804
 ---------------------------------------------------------------------

 SCF Done:  E(RHF) =  -847.125246283     A.U. after   15 cycles

 Excitation energies and oscillator strengths:

 Excited state symmetry could not be determined.
 Excited State   1:      Singlet-?Sym    3.8079 eV  325.60 nm  f=0.0002  <S**2>=0.000
      63 -> 72         0.14594
      67 -> 72         0.58087
      67 -> 73        -0.19273
      67 -> 76        -0.17599
      67 -> 77        -0.16946
 This state for optimization and/or second-order correction.
 Total Energy, E(TD-HF/TD-KS) =  -846.985308350
 Copying the excited state density for this state as the 1-particle RhoCI density.

 Excited state symmetry could not be determined.
 Excited State   2:      Singlet-?Sym    5.0716 eV  244.47 nm  f=1.5823  <S**2>=0.000
      66 -> 72        -0.15058
      70 -> 73         0.10560
      71 -> 72         0.64158
      71 -> 73         0.16755

 Alpha  occ. eigenvalues --  -20.23957 -20.22941 -15.37562 -11.12448 -11.10560
 Alpha  occ. eigenvalues --  -11.10505 -11.10471 -11.08696 -11.05806 -11.04498
 Alpha  occ. eigenvalues --  -11.04414 -11.03505 -11.03461 -11.02882 -11.02025
 Alpha  occ. eigenvalues --  -11.01931 -11.01571 -11.01325 -11.00815 -11.00494
 Alpha  occ. eigenvalues --   -1.31288  -1.26644  -1.21908  -1.09512  -1.07698
 Alpha  occ. eigenvalues --   -1.02164  -0.97444  -0.97212  -0.94392  -0.94017
 Alpha  occ. eigenvalues --   -0.92920  -0.87346  -0.81642  -0.78470  -0.77467
 Alpha  occ. eigenvalues --   -0.74500  -0.72717  -0.68432  -0.67034  -0.64445
 Alpha  occ. eigenvalues --   -0.61894  -0.61790  -0.60967  -0.60150  -0.58389
 Alpha  occ. eigenvalues --   -0.56849  -0.55417  -0.54717  -0.54666  -0.54051
 Alpha  occ. eigenvalues --   -0.52325  -0.51169  -0.50761  -0.50600  -0.49964
 Alpha  occ. eigenvalues --   -0.47955  -0.47107  -0.46646  -0.45711  -0.44661
 Alpha  occ. eigenvalues --   -0.44319  -0.42063  -0.39910  -0.39085  -0.38707
 Alpha  occ. eigenvalues --   -0.30471  -0.29847  -0.29647  -0.27326  -0.21778
 Alpha  occ. eigenvalues --   -0.19732
 Alpha virt. eigenvalues --    0.15663   0.23863   0.26956   0.29128   0.32302
 Alpha virt. eigenvalues --    0.41135   0.51268   0.53205   0.53548   0.56115
 Alpha virt. eigenvalues --    0.57272   0.58087   0.59598   0.62550   0.63120

 Mulliken charges:
               1
     1  C   -0.100873
     2  C    0.144245
     3  H    0.058996
     4  C   -0.035303
     5  C   -0.102931
     6  N   -0.283312
     7  C   -0.039291
     8  H    0.064982
     9  C   -0.034469
    10  H    0.059270
    11  C   -0.064252
    12  C   -0.063930
    13  C   -0.011984
    14  H    0.064801
    15  H    0.070294
    16  H    0.074900
    17  H    0.068618
    18  H    0.075113
    19  H    0.068974
    20  H    0.070786
    21  C   -0.110475
    22  H    0.080730
    23  C    0.188116
    24  H    0.059368
    25  C   -0.080933
    26  O   -0.283008
    27  C    0.152496
    28  C   -0.040814
    29  H    0.262063
    30  O   -0.331702
    31  C   -0.098419
    32  C   -0.091000
    33  H    0.060401
    34  C   -0.038958
    35  H    0.067160
    36  H    0.055395
    37  H    0.064941
 Sum of Mulliken charges =   0.00000

 Dipole moment (field-independent basis, Debye):
    X=             -5.8558    Y=             -0.7423    Z=              4.2415  Tot=              7.2685
 Quadrupole moment (field-independent basis, Debye-Ang):
   XX=            -96.4492   YY=           -105.7244   ZZ=            -86.4610
   XY=              2.7358   XZ=            -16.9993   YZ=             -9.1646

 Normal termination of Gaussian 09 at Wed Nov  1 19:19:31 2017.
