 Gaussian 09, Revision D.01,
 Gaussian 09:  ES64L-G09RevD.01 24-Apr-2013

 ------------------------------------------
 #p wb97xd 6-311++G** td=(nstates=2) nosymm
 ------------------------------------------

 -----
 Title
 -----
 Symbolic Z-matrix:
 Charge =  0 Multiplicity = 1

                          Input orientation:
 ---------------------------------------------------------------------
 Center     Atomic      Atomic             Coordinates (Angstroms)
 Number     Number       Type             X           Y           Z
 ---------------------------------------------------------------------
      1          6           0       -0.045604   -3.212643   -0.673042
      2          6           0       -1.163557   -4.037551   -0.999057
      3          1           0       -0.121291   -2.475288    0.121883
      4          6           0        1.146608   -3.335524   -1.348586
      5          6           0       -0.997931   -4.974953   -2.055672
      6          7           0       -2.337452   -3.933160   -0.324579
      7          6           0        1.320601   -4.270503   -2.399224
      8          1           0        1.971105   -2.682196   -1.060472
      9          6           0        0.202155   -5.074774   -2.725295
     10          1           0       -1.826104   -5.611893   -2.356233
     11          6           0       -3.451039   -4.817588   -0.638286
     12          6           0       -2.482782   -2.951131    0.738607
     13          6           0        2.521300   -4.396929   -3.164451
     14          1           0        0.299534   -5.792287   -3.541330
     15          1           0       -3.150286   -5.872565   -0.549647
     16          1           0       -4.268925   -4.626441    0.063239
     17          1           0       -3.818958   -4.648925   -1.662177
     18          1           0       -2.290162   -1.933406    0.365237
     19          1           0       -3.502453   -2.991283    1.132588
     20          1           0       -1.783201   -3.152381    1.563457
     21          6           0        3.704177   -3.730044   -2.976341
     22          1           0        2.478430   -5.091951   -4.010014
     23          6           0        4.824246   -3.904072   -3.862622
     24          1           0        3.810173   -3.042685   -2.139497
     25          6           0        6.116034   -3.241308   -3.594826
     26          8           0        4.726790   -4.644034   -4.908669
     27          6           0        7.196441   -3.444502   -4.505463
     28          6           0        6.353060   -2.418884   -2.472996
     29          1           0        6.047681   -4.528914   -5.530262
     30          6           0        8.449310   -2.862065   -4.256098
     31          8           0        7.039043   -4.198267   -5.611204
     32          6           0        7.588797   -1.834009   -2.241935
     33          1           0        5.552651   -2.221827   -1.761605
     34          6           0        8.641937   -2.065551   -3.137064
     35          1           0        9.257308   -3.069135   -4.957770
     36          1           0        7.737617   -1.196134   -1.371176
     37          1           0        9.619574   -1.619592   -2.947297
 ---------------------------------------------------------------------

 SCF Done:  E(RwB97XD) =  -863.162546458     A.U. after   17 cycles

 Excitation energies and oscillator strengths:

 Excited state symmetry could not be determined.
 Excited State   1:      Singlet-?Sym    3.3460 eV  370.54 nm  f=1.2098  <S**2>=0.000
      70 -> 72        -0.13936
      70 -> 74        -0.12144
      71 -> 72         0.65962
 This state for optimization and/or second-order correction.
 Total Energy, E(TD-HF/TD-KS) =  -863.039582754
 Copying the excited state density for this state as the 1-particle RhoCI density.

 Excited state symmetry could not be determined.
 Excited State   2:      Singlet-?Sym    3.8087 eV  325.53 nm  f=0.0036  <S**2>=0.000
      68 -> 72         0.66395
      68 -> 74         0.14055

 Alpha  occ. eigenvalues --  -19.24247 -19.23379 -14.47977 -10.38265 -10.35619
 Alpha  occ. eigenvalues --  -10.35419 -10.33771 -10.33755 -10.31809 -10.30946
 Alpha  occ. eigenvalues --  -10.30835 -10.30162 -10.30142 -10.30073 -10.29842
 Alpha  occ. eigenvalues --  -10.29821 -10.29749 -10.29038 -10.28435 -10.28175
 Alpha  occ. eigenvalues --   -1.14935  -1.11100  -1.08217  -0.97225  -0.95647
 Alpha  occ. eigenvalues --   -0.91073  -0.87403  -0.87200  -0.84906  -0.84299
 Alpha  occ. eigenvalues --   -0.83581  -0.79489  -0.74739  -0.72270  -0.71546
 Alpha  occ. eigenvalues --   -0.69185  -0.67978  -0.64675  -0.63469  -0.61394
 Alpha  occ. eigenvalues --   -0.59780  -0.58993  -0.57923  -0.57831  -0.55779
 Alpha  occ. eigenvalues --   -0.55442  -0.54274  -0.52793  -0.52626  -0.51610
 Alpha  occ. eigenvalues --   -0.51517  -0.51252  -0.51038  -0.50312  -0.48741
 Alpha  occ. eigenvalues --   -0.48290  -0.47342  -0.46748  -0.46241  -0.46066
 Alpha  occ. eigenvalues --   -0.45352  -0.42853  -0.42172  -0.41915  -0.41401
 Alpha  occ. eigenvalues --   -0.35234  -0.35071  -0.34211  -0.33593  -0.29522
 Alpha  occ. eigenvalues --   -0.27103
 Alpha virt. eigenvalues --   -0.03030   0.02540   0.03205   0.03798   0.04301
 Alpha virt. eigenvalues --    0.04381   0.04877   0.05649   0.06177   0.06319
 Alpha virt. eigenvalues --    0.06806   0.06973   0.07800   0.07996   0.08059

 Mulliken charges:
               1
     1  C   -0.307537
     2  C   -0.553221
     3  H    0.225451
     4  C   -0.504691
     5  C   -0.320339
     6  N    0.066505
     7  C    0.807006
     8  H    0.169751
     9  C   -0.278534
    10  H    0.191238
    11  C   -0.389945
    12  C   -0.391383
    13  C    0.185762
    14  H    0.213059
    15  H    0.172965
    16  H    0.158667
    17  H    0.183805
    18  H    0.172613
    19  H    0.156371
    20  H    0.181420
    21  C    0.203658
    22  H    0.248628
    23  C   -0.277381
    24  H   -0.170554
    25  C    1.775132
    26  O   -0.332426
    27  C    0.192709
    28  C   -1.273873
    29  H    0.414620
    30  C   -0.521047
    31  O   -0.350140
    32  C   -0.438639
    33  H    0.118879
    34  C   -0.395803
    35  H    0.237432
    36  H    0.222595
    37  H    0.207247
 Sum of Mulliken charges =   0.00000

 Dipole moment (field-independent basis, Debye):
    X=             -7.3881    Y=              1.5036    Z=              6.0777  Tot=              9.6842
 Quadrupole moment (field-independent basis, Debye-Ang):
   XX=           -129.9512   YY=           -128.5765   ZZ=           -153.1045
   XY=             42.7468   XZ=             33.6480   YZ=            -22.5898

 Normal termination of Gaussian 09 at Mon Nov  6 19:49:50 2017.
