 Gaussian 09, Revision D.01,
 Gaussian 09:  ES64L-G09RevD.01 24-Apr-2013

 ----------------------------------
 #p HF/STO-3G td=(nstates=2) nosymm
 ----------------------------------

 -----
 Title
 -----
 Symbolic Z-matrix:
 Charge =  0 Multiplicity = 1

                          Input orientation:
 ---------------------------------------------------------------------
 Center     Atomic      Atomic             Coordinates (Angstroms)
 Number     Number       Type             X           Y           Z
 ---------------------------------------------------------------------
      1          6           0       -0.045604   -3.212643   -0.673042
      2          6           0       -1.163557   -4.037551   -0.999057
      3          1           0       -0.121291   -2.475288    0.121883
      4          6           0        1.146608   -3.335524   -1.348586
      5          6           0       -0.997931   -4.974953   -2.055672
      6          7           0       -2.337452   -3.933160   -0.324579
      7          6           0        1.320601   -4.270503   -2.399224
      8          1           0        1.971105   -2.682196   -1.060472
      9          6           0        0.202155   -5.074774   -2.725295
     10          1           0       -1.826104   -5.611893   -2.356233
     11          6           0       -3.451039   -4.817588   -0.638286
     12          6           0       -2.482782   -2.951131    0.738607
     13          6           0        2.521300   -4.396929   -3.164451
     14          1           0        0.299534   -5.792287   -3.541330
     15          1           0       -3.150286   -5.872565   -0.549647
     16          1           0       -4.268925   -4.626441    0.063239
     17          1           0       -3.818958   -4.648925   -1.662177
     18          1           0       -2.290162   -1.933406    0.365237
     19          1           0       -3.502453   -2.991283    1.132588
     20          1           0       -1.783201   -3.152381    1.563457
     21          6           0        3.704177   -3.730044   -2.976341
     22          1           0        2.478430   -5.091951   -4.010014
     23          6           0        4.824246   -3.904072   -3.862622
     24          1           0        3.810173   -3.042685   -2.139497
     25          6           0        6.116034   -3.241308   -3.594826
     26          8           0        4.726790   -4.644034   -4.908669
     27          6           0        7.196441   -3.444502   -4.505463
     28          6           0        6.353060   -2.418884   -2.472996
     29          1           0        6.047681   -4.528914   -5.530262
     30          6           0        8.449310   -2.862065   -4.256098
     31          8           0        7.039043   -4.198267   -5.611204
     32          6           0        7.588797   -1.834009   -2.241935
     33          1           0        5.552651   -2.221827   -1.761605
     34          6           0        8.641937   -2.065551   -3.137064
     35          1           0        9.257308   -3.069135   -4.957770
     36          1           0        7.737617   -1.196134   -1.371176
     37          1           0        9.619574   -1.619592   -2.947297
 ---------------------------------------------------------------------

 SCF Done:  E(RHF) =  -847.125246319     A.U. after   15 cycles

 Excitation energies and oscillator strengths:

 Excited state symmetry could not be determined.
 Excited State   1:      Singlet-?Sym    3.8079 eV  325.60 nm  f=0.0002  <S**2>=0.000
      63 -> 72         0.14594
      67 -> 72         0.58087
      67 -> 73        -0.19273
      67 -> 76        -0.17599
      67 -> 77        -0.16946
 This state for optimization and/or second-order correction.
 Total Energy, E(TD-HF/TD-KS) =  -846.985308225
 Copying the excited state density for this state as the 1-particle RhoCI density.

 Excited state symmetry could not be determined.
 Excited State   2:      Singlet-?Sym    5.0716 eV  244.47 nm  f=1.5823  <S**2>=0.000
      66 -> 72         0.15058
      70 -> 73         0.10561
      71 -> 72         0.64158
      71 -> 73         0.16755

 Alpha  occ. eigenvalues --  -20.23957 -20.22941 -15.37561 -11.12448 -11.10560
 Alpha  occ. eigenvalues --  -11.10505 -11.10471 -11.08696 -11.05806 -11.04498
 Alpha  occ. eigenvalues --  -11.04414 -11.03505 -11.03461 -11.02882 -11.02025
 Alpha  occ. eigenvalues --  -11.01931 -11.01571 -11.01325 -11.00815 -11.00494
 Alpha  occ. eigenvalues --   -1.31288  -1.26644  -1.21908  -1.09512  -1.07698
 Alpha  occ. eigenvalues --   -1.02164  -0.97444  -0.97212  -0.94392  -0.94017
 Alpha  occ. eigenvalues --   -0.92920  -0.87346  -0.81642  -0.78470  -0.77467
 Alpha  occ. eigenvalues --   -0.74500  -0.72717  -0.68432  -0.67034  -0.64445
 Alpha  occ. eigenvalues --   -0.61894  -0.61790  -0.60967  -0.60150  -0.58389
 Alpha  occ. eigenvalues --   -0.56849  -0.55417  -0.54717  -0.54666  -0.54051
 Alpha  occ. eigenvalues --   -0.52325  -0.51169  -0.50761  -0.50600  -0.49964
 Alpha  occ. eigenvalues --   -0.47955  -0.47107  -0.46646  -0.45711  -0.44661
 Alpha  occ. eigenvalues --   -0.44319  -0.42063  -0.39910  -0.39085  -0.38707
 Alpha  occ. eigenvalues --   -0.30471  -0.29847  -0.29647  -0.27326  -0.21778
 Alpha  occ. eigenvalues --   -0.19732
 Alpha virt. eigenvalues --    0.15663   0.23864   0.26956   0.29128   0.32302
 Alpha virt. eigenvalues --    0.41135   0.51268   0.53205   0.53548   0.56115
 Alpha virt. eigenvalues --    0.57272   0.58087   0.59598   0.62550   0.63120

 Mulliken charges:
               1
     1  C   -0.100873
     2  C    0.144245
     3  H    0.058997
     4  C   -0.035303
     5  C   -0.102931
     6  N   -0.283312
     7  C   -0.039291
     8  H    0.064982
     9  C   -0.034469
    10  H    0.059270
    11  C   -0.063930
    12  C   -0.064252
    13  C   -0.011984
    14  H    0.064801
    15  H    0.070787
    16  H    0.075114
    17  H    0.068974
    18  H    0.070294
    19  H    0.074900
    20  H    0.068618
    21  C   -0.110475
    22  H    0.080730
    23  C    0.188116
    24  H    0.059368
    25  C   -0.080933
    26  O   -0.283008
    27  C    0.152496
    28  C   -0.040813
    29  H    0.262063
    30  C   -0.098420
    31  O   -0.331702
    32  C   -0.091000
    33  H    0.060401
    34  C   -0.038958
    35  H    0.067161
    36  H    0.055395
    37  H    0.064941
 Sum of Mulliken charges =   0.00000

 Dipole moment (field-independent basis, Debye):
    X=             -5.8558    Y=              0.7423    Z=              4.2415  Tot=              7.2685
 Quadrupole moment (field-independent basis, Debye-Ang):
   XX=           -128.4925   YY=           -113.3590   ZZ=           -134.1530
   XY=             29.4086   XZ=             27.5274   YZ=            -16.8205

 Normal termination of Gaussian 09 at Wed Nov  1 19:18:54 2017.
