 Gaussian 09, Revision D.01,
 Gaussian 09:  ES64L-G09RevD.01 24-Apr-2013

 ------------------------------------------
 #p wb97xd/6-311++G** td=(nstates=2) nosymm
 ------------------------------------------

 -----
 Title
 -----
 Symbolic Z-matrix:
 Charge =  0 Multiplicity = 1

                          Input orientation:
 ---------------------------------------------------------------------
 Center     Atomic      Atomic             Coordinates (Angstroms)
 Number     Number       Type             X           Y           Z
 ---------------------------------------------------------------------
      1          6           0       -4.460431    1.697999   -1.116637
      2          6           0       -5.713299    2.280435   -1.366002
      3          6           0       -3.380024    1.901192   -2.027274
      4          8           0       -4.303033    0.944233   -0.010897
      5          6           0       -5.905928    3.076949   -2.485036
      6          1           0       -6.521299    2.073365   -0.664330
      7          6           0       -3.617051    2.723616   -3.149103
      8          6           0       -2.088235    1.238428   -1.759477
      9          1           0       -3.311670    0.613585   -0.091837
     10          6           0       -4.852787    3.308490   -3.380165
     11          1           0       -6.883564    3.522908   -2.674803
     12          1           0       -2.816641    2.920673   -3.860494
     13          6           0       -0.968168    1.412456   -2.645759
     14          8           0       -1.990780    0.498466   -0.713431
     15          1           0       -5.001607    3.946366   -4.250924
     16          6           0        0.214710    0.745571   -2.457648
     17          1           0       -1.074164    2.099815   -3.482603
     18          6           0        1.415410    0.871997   -3.222876
     19          1           0        0.257579    0.050548   -1.612086
     20          6           0        1.589403    1.806976   -4.273513
     21          6           0        2.533855    0.067726   -2.896805
     22          1           0        0.764905    2.460304   -4.561628
     23          6           0        2.781614    1.929857   -4.949058
     24          1           0        2.436477   -0.649787   -2.080769
     25          6           0        3.733941    0.167547   -3.566428
     26          6           0        3.899567    1.104949   -4.623043
     27          1           0        2.857302    2.667212   -5.743983
     28          1           0        4.562114   -0.469393   -3.265867
     29          7           0        5.073463    1.209340   -5.297521
     30          6           0        5.218793    2.191367   -6.360708
     31          6           0        6.187049    0.324912   -4.983814
     32          1           0        5.026173    3.209094   -5.987337
     33          1           0        6.238463    2.151217   -6.754687
     34          1           0        4.519212    1.990119   -7.185558
     35          1           0        5.886297   -0.730065   -5.072452
     36          1           0        7.004935    0.516059   -5.685338
     37          1           0        6.554969    0.493576   -3.959923
 ---------------------------------------------------------------------

 SCF Done:  E(RwB97XD) =  -863.162546517     A.U. after   17 cycles

 Excitation energies and oscillator strengths:

 Excited state symmetry could not be determined.
 Excited State   1:      Singlet-?Sym    3.3460 eV  370.54 nm  f=1.2098  <S**2>=0.000
      70 -> 72         0.13936
      70 -> 74         0.12144
      71 -> 72         0.65962
 This state for optimization and/or second-order correction.
 Total Energy, E(TD-HF/TD-KS) =  -863.039582791
 Copying the excited state density for this state as the 1-particle RhoCI density.

 Excited state symmetry could not be determined.
 Excited State   2:      Singlet-?Sym    3.8087 eV  325.53 nm  f=0.0036  <S**2>=0.000
      68 -> 72         0.66395
      68 -> 74         0.14055

 Alpha  occ. eigenvalues --  -19.24247 -19.23379 -14.47977 -10.38265 -10.35619
 Alpha  occ. eigenvalues --  -10.35419 -10.33771 -10.33755 -10.31809 -10.30946
 Alpha  occ. eigenvalues --  -10.30835 -10.30162 -10.30142 -10.30073 -10.29842
 Alpha  occ. eigenvalues --  -10.29822 -10.29749 -10.29038 -10.28435 -10.28175
 Alpha  occ. eigenvalues --   -1.14935  -1.11100  -1.08217  -0.97225  -0.95647
 Alpha  occ. eigenvalues --   -0.91073  -0.87403  -0.87200  -0.84906  -0.84299
 Alpha  occ. eigenvalues --   -0.83581  -0.79489  -0.74739  -0.72270  -0.71546
 Alpha  occ. eigenvalues --   -0.69185  -0.67978  -0.64675  -0.63469  -0.61394
 Alpha  occ. eigenvalues --   -0.59780  -0.58993  -0.57923  -0.57831  -0.55779
 Alpha  occ. eigenvalues --   -0.55442  -0.54274  -0.52793  -0.52626  -0.51610
 Alpha  occ. eigenvalues --   -0.51517  -0.51252  -0.51038  -0.50312  -0.48741
 Alpha  occ. eigenvalues --   -0.48290  -0.47342  -0.46748  -0.46241  -0.46066
 Alpha  occ. eigenvalues --   -0.45352  -0.42853  -0.42172  -0.41915  -0.41401
 Alpha  occ. eigenvalues --   -0.35234  -0.35071  -0.34211  -0.33593  -0.29522
 Alpha  occ. eigenvalues --   -0.27103
 Alpha virt. eigenvalues --   -0.03030   0.02540   0.03205   0.03798   0.04301
 Alpha virt. eigenvalues --    0.04381   0.04877   0.05649   0.06177   0.06319
 Alpha virt. eigenvalues --    0.06806   0.06973   0.07800   0.07996   0.08059

 Mulliken charges:
               1
     1  C    0.192712
     2  C   -0.521048
     3  C    1.775137
     4  O   -0.350141
     5  C   -0.395804
     6  H    0.237432
     7  C   -1.273875
     8  C   -0.277379
     9  H    0.414620
    10  C   -0.438640
    11  H    0.207247
    12  H    0.118879
    13  C    0.203656
    14  O   -0.332426
    15  H    0.222595
    16  C    0.185762
    17  H   -0.170553
    18  C    0.807006
    19  H    0.248628
    20  C   -0.504692
    21  C   -0.278533
    22  H    0.169751
    23  C   -0.307542
    24  H    0.213059
    25  C   -0.320339
    26  C   -0.553218
    27  H    0.225451
    28  H    0.191238
    29  N    0.066506
    30  C   -0.391384
    31  C   -0.389945
    32  H    0.172613
    33  H    0.156371
    34  H    0.181420
    35  H    0.172965
    36  H    0.158667
    37  H    0.183805
 Sum of Mulliken charges =   0.00000

 Dipole moment (field-independent basis, Debye):
    X=              7.3881    Y=              1.5036    Z=             -6.0777  Tot=              9.6842
 Quadrupole moment (field-independent basis, Debye-Ang):
   XX=            -89.5237   YY=           -113.1121   ZZ=            -84.7654
   XY=             -0.6399   XZ=            -24.5171   YZ=            -17.1182

 Normal termination of Gaussian 09 at Wed Nov  8 18:26:21 2017.
