 Gaussian 09, Revision D.01,
 Gaussian 09:  ES64L-G09RevD.01 24-Apr-2013

 ------------------------------------------
 #p wb97xd 6-311++G** td=(nstates=4) nosymm
 ------------------------------------------

 -----
 Title
 -----
 Symbolic Z-matrix:
 Charge =  0 Multiplicity = 1

                          Input orientation:
 ---------------------------------------------------------------------
 Center     Atomic      Atomic             Coordinates (Angstroms)
 Number     Number       Type             X           Y           Z
 ---------------------------------------------------------------------
      1          6           0       -0.045604   -3.212643   -0.673042
      2          6           0       -1.163557   -4.037551   -0.999057
      3          1           0       -0.121291   -2.475288    0.121883
      4          6           0        1.146608   -3.335524   -1.348586
      5          6           0       -0.997931   -4.974953   -2.055672
      6          7           0       -2.337452   -3.933160   -0.324579
      7          6           0        1.320601   -4.270503   -2.399224
      8          1           0        1.971105   -2.682196   -1.060472
      9          6           0        0.202155   -5.074774   -2.725295
     10          1           0       -1.826104   -5.611893   -2.356233
     11          6           0       -3.451039   -4.817588   -0.638286
     12          6           0       -2.482782   -2.951131    0.738607
     13          6           0        2.521300   -4.396929   -3.164451
     14          1           0        0.299534   -5.792287   -3.541330
     15          1           0       -3.150286   -5.872565   -0.549647
     16          1           0       -4.268925   -4.626441    0.063239
     17          1           0       -3.818958   -4.648925   -1.662177
     18          1           0       -2.290162   -1.933406    0.365237
     19          1           0       -3.502453   -2.991283    1.132588
     20          1           0       -1.783201   -3.152381    1.563457
     21          6           0        3.704177   -3.730044   -2.976341
     22          1           0        2.478430   -5.091951   -4.010014
     23          6           0        4.824246   -3.904072   -3.862622
     24          1           0        3.810173   -3.042685   -2.139497
     25          6           0        6.116034   -3.241308   -3.594826
     26          8           0        4.726790   -4.644034   -4.908669
     27          6           0        7.196441   -3.444502   -4.505463
     28          6           0        6.353060   -2.418884   -2.472996
     29          1           0        6.047681   -4.528914   -5.530262
     30          6           0        8.449310   -2.862065   -4.256098
     31          8           0        7.039043   -4.198267   -5.611204
     32          6           0        7.588797   -1.834009   -2.241935
     33          1           0        5.552651   -2.221827   -1.761605
     34          6           0        8.641937   -2.065551   -3.137064
     35          1           0        9.257308   -3.069135   -4.957770
     36          1           0        7.737617   -1.196134   -1.371176
     37          1           0        9.619574   -1.619592   -2.947297
     38          6           0       -2.781614   -1.929857    4.949057
     39          6           0       -3.899567   -1.104949    4.623044
     40          1           0       -2.857302   -2.667213    5.743983
     41          6           0       -1.589403   -1.806976    4.273514
     42          6           0       -3.733940   -0.167547    3.566427
     43          7           0       -5.073462   -1.209339    5.297522
     44          6           0       -1.415409   -0.871998    3.222876
     45          1           0       -0.764905   -2.460304    4.561627
     46          6           0       -2.533855   -0.067726    2.896805
     47          1           0       -4.562114    0.469394    3.265867
     48          6           0       -5.218792   -2.191368    6.360707
     49          6           0       -6.187049   -0.324912    4.983813
     50          6           0       -0.214710   -0.745572    2.457648
     51          1           0       -2.436476    0.649787    2.080770
     52          1           0       -5.026172   -3.209094    5.987337
     53          1           0       -6.238463   -2.151217    6.754688
     54          1           0       -4.519211   -1.990120    7.185557
     55          1           0       -7.004935   -0.516059    5.685339
     56          1           0       -6.554969   -0.493575    3.959922
     57          1           0       -5.886296    0.730066    5.072453
     58          6           0        0.968167   -1.412456    2.645758
     59          1           0       -0.257580   -0.050548    1.612086
     60          6           0        2.088236   -1.238428    1.759478
     61          1           0        1.074163   -2.099815    3.482603
     62          6           0        3.380024   -1.901192    2.027274
     63          8           0        1.990780   -0.498466    0.713431
     64          6           0        4.460431   -1.697998    1.116638
     65          6           0        3.617050   -2.723616    3.149104
     66          1           0        3.311671   -0.613585    0.091837
     67          8           0        4.303032   -0.944233    0.010896
     68          6           0        5.713299   -2.280435    1.366002
     69          6           0        4.852786   -3.308490    3.380164
     70          1           0        2.816640   -2.920673    3.860494
     71          6           0        5.905928   -3.076949    2.485036
     72          1           0        6.521299   -2.073366    0.664330
     73          1           0        5.001608   -3.946366    4.250925
     74          1           0        6.883564   -3.522908    2.674804
 ---------------------------------------------------------------------

 SCF Done:  E(RwB97XD) =  -1726.34275677     A.U. after   24 cycles

 Excitation energies and oscillator strengths:

 Excited state symmetry could not be determined.
 Excited State   1:      Singlet-?Sym    3.2480 eV  381.73 nm  f=0.0577  <S**2>=0.000
     139 -> 143        0.13397
     139 -> 146        0.10071
     140 -> 143        0.50614
     141 -> 143        0.10279
     142 -> 144        0.40307
 This state for optimization and/or second-order correction.
 Total Energy, E(TD-HF/TD-KS) =  -1726.22339550
 Copying the excited state density for this state as the 1-particle RhoCI density.

 Excited state symmetry could not be determined.
 Excited State   2:      Singlet-?Sym    3.3738 eV  367.49 nm  f=2.0721  <S**2>=0.000
     140 -> 143       -0.37746
     141 -> 144       -0.12218
     142 -> 143       -0.15632
     142 -> 144        0.51276

 Excited state symmetry could not be determined.
 Excited State   3:      Singlet-?Sym    3.3805 eV  366.77 nm  f=0.1381  <S**2>=0.000
     140 -> 143       -0.14673
     142 -> 143        0.67127

 Excited state symmetry could not be determined.
 Excited State   4:      Singlet-?Sym    3.8155 eV  324.95 nm  f=0.0006  <S**2>=0.000
     133 -> 143        0.62721
     133 -> 146        0.13606
     139 -> 143        0.19327

 Alpha  occ. eigenvalues --  -19.25767 -19.24797 -19.23084 -19.22108 -14.49137
 Alpha  occ. eigenvalues --  -14.46781 -10.39613 -10.36921 -10.36875 -10.36551
 Alpha  occ. eigenvalues --  -10.34772 -10.34745 -10.34270 -10.34163 -10.33188
 Alpha  occ. eigenvalues --  -10.32973 -10.32504 -10.32243 -10.32151 -10.31489
 Alpha  occ. eigenvalues --  -10.31334 -10.31108 -10.31098 -10.30880 -10.30710
 Alpha  occ. eigenvalues --  -10.30460 -10.30371 -10.29534 -10.29334 -10.29292
 Alpha  occ. eigenvalues --  -10.29110 -10.28760 -10.28642 -10.28581 -10.28462
 Alpha  occ. eigenvalues --  -10.28446 -10.28353 -10.27499 -10.27073 -10.26948
 Alpha  occ. eigenvalues --   -1.16402  -1.13729  -1.12566  -1.09874  -1.09356
 Alpha  occ. eigenvalues --   -1.07046  -0.98554  -0.96640  -0.95822  -0.94292
 Alpha  occ. eigenvalues --   -0.92425  -0.89672  -0.88570  -0.88389  -0.86103
 Alpha  occ. eigenvalues --   -0.86046  -0.85844  -0.85389  -0.84598  -0.83561
 Alpha  occ. eigenvalues --   -0.83140  -0.82248  -0.80686  -0.78212  -0.75889
 Alpha  occ. eigenvalues --   -0.73486  -0.73430  -0.72760  -0.70877  -0.70254
 Alpha  occ. eigenvalues --   -0.70180  -0.69207  -0.67832  -0.66643  -0.65908
 Alpha  occ. eigenvalues --   -0.64691  -0.63346  -0.62575  -0.62180  -0.60914
 Alpha  occ. eigenvalues --   -0.60181  -0.60029  -0.59017  -0.58984  -0.58527
 Alpha  occ. eigenvalues --   -0.57732  -0.56978  -0.56846  -0.56612  -0.56496
 Alpha  occ. eigenvalues --   -0.55469  -0.54451  -0.54171  -0.54010  -0.53754
 Alpha  occ. eigenvalues --   -0.53088  -0.52843  -0.52611  -0.52531  -0.52322
 Alpha  occ. eigenvalues --   -0.51427  -0.51361  -0.51114  -0.50666  -0.50099
 Alpha  occ. eigenvalues --   -0.49968  -0.49883  -0.49773  -0.49364  -0.49107
 Alpha  occ. eigenvalues --   -0.48602  -0.47897  -0.47657  -0.47469  -0.47342
 Alpha  occ. eigenvalues --   -0.46944  -0.46436  -0.45872  -0.45496  -0.44963
 Alpha  occ. eigenvalues --   -0.44683  -0.44113  -0.44032  -0.43281  -0.43023
 Alpha  occ. eigenvalues --   -0.42592  -0.41428  -0.40747  -0.40612  -0.40126
 Alpha  occ. eigenvalues --   -0.36556  -0.36395  -0.35598  -0.34571  -0.33920
 Alpha  occ. eigenvalues --   -0.33597  -0.32942  -0.32271  -0.30675  -0.28369
 Alpha  occ. eigenvalues --   -0.28260  -0.25795
 Alpha virt. eigenvalues --   -0.04437  -0.01700   0.01566   0.01975   0.02968
 Alpha virt. eigenvalues --    0.03085   0.03219   0.03651   0.04402   0.04639
 Alpha virt. eigenvalues --    0.04803   0.05033   0.05535   0.05667   0.05925

 Mulliken charges:
               1
     1  C   -0.128373
     2  C    0.172002
     3  H   -0.019689
     4  C   -0.342537
     5  C   -0.467628
     6  N    0.256947
     7  C    0.565854
     8  H   -0.084343
     9  C   -0.501912
    10  H    0.175714
    11  C   -0.321251
    12  C   -0.760942
    13  C    0.116057
    14  H    0.206280
    15  H    0.167072
    16  H    0.163646
    17  H    0.178116
    18  H    0.242792
    19  H    0.106744
    20  H    0.286076
    21  C    0.000307
    22  H    0.262828
    23  C   -0.146373
    24  H   -0.094723
    25  C    0.956988
    26  O   -0.366023
    27  C   -0.243334
    28  C   -0.383514
    29  H    0.412592
    30  C   -0.502484
    31  O   -0.354741
    32  C   -0.008198
    33  H   -0.065205
    34  C   -0.216127
    35  H    0.232908
    36  H    0.228953
    37  H    0.213413
    38  C   -0.351977
    39  C   -0.618542
    40  H    0.216328
    41  C   -0.250506
    42  C   -0.187078
    43  N    0.098003
    44  C    0.494998
    45  H    0.209466
    46  C   -0.140860
    47  H    0.212061
    48  C   -0.366592
    49  C   -0.370048
    50  C   -0.143359
    51  H    0.203282
    52  H    0.176512
    53  H    0.162122
    54  H    0.183743
    55  H    0.165386
    56  H    0.180040
    57  H    0.178830
    58  C   -0.138330
    59  H    0.290900
    60  C   -0.046467
    61  H   -0.044021
    62  C    0.967686
    63  O   -0.255254
    64  C   -0.123656
    65  C   -0.464251
    66  H    0.416863
    67  O   -0.233651
    68  C   -0.370920
    69  C   -0.441894
    70  H    0.154688
    71  C   -0.242448
    72  H    0.088137
    73  H    0.214225
    74  H    0.238693
 Sum of Mulliken charges =   0.00000

 Dipole moment (field-independent basis, Debye):
    X=            -14.4082    Y=              0.5955    Z=             13.2703  Tot=             19.5973
 Quadrupole moment (field-independent basis, Debye-Ang):
   XX=           -221.1642   YY=           -245.2324   ZZ=           -236.6915
   XY=             40.6143   XZ=             12.0093   YZ=            -43.6293

 Normal termination of Gaussian 09 at Mon Nov  6 23:17:33 2017.
