 Gaussian 09, Revision D.01,
 Gaussian 09:  ES64L-G09RevD.01 24-Apr-2013

 ---------------------------------------------
 # wb97xd 6-311++g** opt td=(nstates=1,root=1)
 ---------------------------------------------

 ----------------------
 restarted optimization
 ----------------------
 Symbolic Z-matrix:
 Charge =  0 Multiplicity = 1

 SCF Done:  E(RwB97XD) =  -632.135026366     A.U. after   18 cycles
 SCF Done:  E(RwB97XD) =  -632.135285639     A.U. after   16 cycles
 SCF Done:  E(RwB97XD) =  -632.135453114     A.U. after   15 cycles
 SCF Done:  E(RwB97XD) =  -632.136024920     A.U. after   15 cycles
 SCF Done:  E(RwB97XD) =  -632.136441253     A.U. after   16 cycles
 SCF Done:  E(RwB97XD) =  -632.136057339     A.U. after   16 cycles
 SCF Done:  E(RwB97XD) =  -632.135637009     A.U. after   16 cycles
 SCF Done:  E(RwB97XD) =  -632.134409678     A.U. after   16 cycles
 SCF Done:  E(RwB97XD) =  -632.133099773     A.U. after   15 cycles
 SCF Done:  E(RwB97XD) =  -632.132111444     A.U. after   16 cycles
 SCF Done:  E(RwB97XD) =  -632.105380397     A.U. after   15 cycles
 SCF Done:  E(RwB97XD) =  -632.105476644     A.U. after   13 cycles
 SCF Done:  E(RwB97XD) =  -632.105578319     A.U. after   12 cycles
 SCF Done:  E(RwB97XD) =  -632.105572760     A.U. after   13 cycles
 SCF Done:  E(RwB97XD) =  -632.105597399     A.U. after   11 cycles
 SCF Done:  E(RwB97XD) =  -632.105584794     A.U. after   11 cycles
 SCF Done:  E(RwB97XD) =  -632.105553563     A.U. after   12 cycles
 SCF Done:  E(RwB97XD) =  -632.105506065     A.U. after   13 cycles
 SCF Done:  E(RwB97XD) =  -632.105471723     A.U. after   13 cycles
 SCF Done:  E(RwB97XD) =  -632.105459408     A.U. after   12 cycles

 Excitation energies and oscillator strengths:

 Excited State   1:      Singlet-A      2.3137 eV  535.87 nm  f=0.0001  <S**2>=0.000
      48 -> 52        -0.14811
      51 -> 52         0.65899
      51 -> 67        -0.11548
 This state for optimization and/or second-order correction.
 Total Energy, E(TD-HF/TD-KS) =  -632.020432409
 Copying the excited state density for this state as the 1-particle RhoCI density.

 Optimization completed.
    -- Stationary point found.

                         Standard orientation:
 ---------------------------------------------------------------------
 Center     Atomic      Atomic             Coordinates (Angstroms)
 Number     Number       Type             X           Y           Z
 ---------------------------------------------------------------------
      1          6           0       -4.034254    0.364188   -1.128642
      2          1           0       -5.102832    0.545954   -1.028957
      3          1           0       -3.582210    1.196977   -1.672680
      4          6           0       -4.323030    0.484327    1.338263
      5          1           0       -4.729012    1.497972    1.292368
      6          7           0       -3.451362    0.241547    0.200398
      7          1           0       -3.883357   -0.557888   -1.693898
      8          1           0       -3.762874    0.368669    2.264369
      9          1           0       -5.150277   -0.229808    1.332531
     10          6           0       -2.168818   -0.066599    0.365941
     11          1           0       -1.832713   -0.158137    1.392778
     12          6           0       -1.240290   -0.267506   -0.643093
     13          6           0        0.096755   -0.753825   -0.302067
     14          1           0       -1.558964   -0.277139   -1.684408
     15          8           0       -0.072220   -2.043426   -0.241074
     16          6           0        1.292093   -0.013916   -0.160687
     17          6           0        2.516800   -0.679031    0.137560
     18          6           0        1.326276    1.392997   -0.290904
     19          8           0        2.565759   -2.026066    0.268805
     20          6           0        3.683646    0.045141    0.301283
     21          6           0        2.503109    2.105079   -0.125581
     22          1           0        0.407061    1.919058   -0.528908
     23          1           0        1.674421   -2.385012    0.114616
     24          1           0        4.594506   -0.496909    0.528479
     25          6           0        3.685563    1.434737    0.173101
     26          1           0        2.499537    3.184007   -0.234212
     27          1           0        4.610835    1.983816    0.302247
 ---------------------------------------------------------------------

 The electronic state is 1-A.
 Alpha  occ. eigenvalues --  -19.27085 -19.23216 -14.45867 -10.37993 -10.37092
 Alpha  occ. eigenvalues --  -10.32400 -10.32134 -10.32012 -10.31311 -10.31231
 Alpha  occ. eigenvalues --  -10.30840 -10.29540 -10.29442 -10.26324  -1.16792
 Alpha  occ. eigenvalues --   -1.11072  -1.06454  -0.97369  -0.88982  -0.86258
 Alpha  occ. eigenvalues --   -0.85608  -0.83454  -0.78875  -0.75455  -0.70968
 Alpha  occ. eigenvalues --   -0.68749  -0.65416  -0.62170  -0.61259  -0.59489
 Alpha  occ. eigenvalues --   -0.57403  -0.56641  -0.56338  -0.53816  -0.52978
 Alpha  occ. eigenvalues --   -0.51973  -0.50354  -0.50286  -0.49217  -0.48289
 Alpha  occ. eigenvalues --   -0.48139  -0.47233  -0.46585  -0.43803  -0.43575
 Alpha  occ. eigenvalues --   -0.42875  -0.40505  -0.34790  -0.34568  -0.31376
 Alpha  occ. eigenvalues --   -0.25488
 Alpha virt. eigenvalues --   -0.01508   0.03320   0.04176   0.05000   0.05440
 Alpha virt. eigenvalues --    0.05572   0.06046   0.06515   0.07543   0.07676
 Alpha virt. eigenvalues --    0.08214   0.09123   0.09172   0.09501   0.09938

 Mulliken charges:
               1
     1  C   -0.432499
     2  H    0.179051
     3  H    0.175209
     4  C   -0.324895
     5  H    0.165053
     6  N    0.178123
     7  H    0.187988
     8  H    0.135177
     9  H    0.172646
    10  C   -0.668730
    11  H    0.152731
    12  C   -0.200870
    13  C    0.032037
    14  H    0.219419
    15  O   -0.238940
    16  C    1.082239
    17  C   -0.165611
    18  C   -0.494363
    19  O   -0.246924
    20  C   -0.260633
    21  C   -0.541755
    22  H    0.213055
    23  H    0.316855
    24  H    0.238445
    25  C   -0.310824
    26  H    0.221866
    27  H    0.216152
 Sum of Mulliken charges =   0.00000

 Dipole moment (field-independent basis, Debye):
    X=             -2.6081    Y=              4.0984    Z=              0.4463  Tot=              4.8783
 Quadrupole moment (field-independent basis, Debye-Ang):
   XX=            -63.5922   YY=            -88.7666   ZZ=            -81.8675
   XY=              3.3443   XZ=             -0.4980   YZ=             -0.3463

 Normal termination of Gaussian 09 at Thu Jul 20 23:23:08 2017.
