 Gaussian 09, Revision D.01,
 Gaussian 09:  ES64L-G09RevD.01 24-Apr-2013

 ---------------------------------------------
 # wb97xd 6-311++g** opt td=(nstates=1,root=1)
 ---------------------------------------------

 ----------------------
 restarted optimization
 ----------------------
 Symbolic Z-matrix:
 Charge =  0 Multiplicity = 1

 SCF Done:  E(RwB97XD) =  -632.130532552     A.U. after   17 cycles
 SCF Done:  E(RwB97XD) =  -632.126806750     A.U. after   15 cycles
 SCF Done:  E(RwB97XD) =  -632.118762809     A.U. after   16 cycles
 SCF Done:  E(RwB97XD) =  -632.116079419     A.U. after   15 cycles
 SCF Done:  E(RwB97XD) =  -632.112439512     A.U. after   16 cycles
 SCF Done:  E(RwB97XD) =  -632.115113317     A.U. after   15 cycles
 SCF Done:  E(RwB97XD) =  -632.120068843     A.U. after   16 cycles
 SCF Done:  E(RwB97XD) =  -632.124051242     A.U. after   16 cycles
 SCF Done:  E(RwB97XD) =  -632.125905092     A.U. after   16 cycles
 SCF Done:  E(RwB97XD) =  -632.125626273     A.U. after   15 cycles
 SCF Done:  E(RwB97XD) =  -632.124910034     A.U. after   15 cycles
 SCF Done:  E(RwB97XD) =  -632.124707695     A.U. after   13 cycles
 SCF Done:  E(RwB97XD) =  -632.124757252     A.U. after   14 cycles
 SCF Done:  E(RwB97XD) =  -632.124944678     A.U. after   13 cycles
 SCF Done:  E(RwB97XD) =  -632.125113985     A.U. after   12 cycles
 SCF Done:  E(RwB97XD) =  -632.125206874     A.U. after   12 cycles
 SCF Done:  E(RwB97XD) =  -632.125194990     A.U. after    9 cycles
 SCF Done:  E(RwB97XD) =  -632.125181946     A.U. after    8 cycles

 Excitation energies and oscillator strengths:

 Excited State   1:      Singlet-A      3.2495 eV  381.55 nm  f=0.0070  <S**2>=0.000
      48 -> 52        -0.30273
      49 -> 52        -0.55171
      50 -> 52         0.21242
      51 -> 52        -0.16835
 This state for optimization and/or second-order correction.
 Total Energy, E(TD-HF/TD-KS) =  -632.005766123
 Copying the excited state density for this state as the 1-particle RhoCI density.

 Optimization completed.
    -- Stationary point found.

                         Standard orientation:
 ---------------------------------------------------------------------
 Center     Atomic      Atomic             Coordinates (Angstroms)
 Number     Number       Type             X           Y           Z
 ---------------------------------------------------------------------
      1          6           0        3.450628    1.448320   -0.739012
      2          1           0        4.434080    1.919698   -0.743002
      3          1           0        3.128083    1.299523   -1.780873
      4          6           0        4.748397   -0.553365   -0.146917
      5          1           0        4.869486   -0.965368   -1.159495
      6          7           0        3.522012    0.205860   -0.005167
      7          1           0        2.749986    2.133420   -0.255310
      8          1           0        4.750369   -1.381783    0.563508
      9          1           0        5.606049    0.085728    0.074578
     10          6           0        2.366931   -0.486719    0.243319
     11          1           0        2.515486   -1.444185    0.728814
     12          6           0        1.091274   -0.047622   -0.028297
     13          6           0       -0.056252   -0.808869    0.276927
     14          1           0        0.916932    0.881216   -0.557115
     15          8           0        0.070250   -2.021602    0.751942
     16          6           0       -1.443589   -0.393643    0.049783
     17          6           0       -1.870355    0.925875    0.319285
     18          6           0       -2.392226   -1.325943   -0.403528
     19          8           0       -1.052866    1.865691    0.853663
     20          6           0       -3.179973    1.298845    0.046948
     21          6           0       -3.700843   -0.949477   -0.653317
     22          1           0       -2.071565   -2.344334   -0.585828
     23          1           0       -0.244084    1.440019    1.160462
     24          1           0       -3.474170    2.321024    0.253732
     25          6           0       -4.089138    0.369902   -0.440207
     26          1           0       -4.413225   -1.679147   -1.019082
     27          1           0       -5.109717    0.676621   -0.638955
 ---------------------------------------------------------------------

 The electronic state is 1-A.
 Alpha  occ. eigenvalues --  -19.28160 -19.20097 -14.49556 -10.36384 -10.35931
 Alpha  occ. eigenvalues --  -10.35503 -10.34022 -10.33697 -10.29387 -10.29222
 Alpha  occ. eigenvalues --  -10.28959 -10.28512 -10.28221 -10.27960  -1.17577
 Alpha  occ. eigenvalues --   -1.09097  -1.07936  -0.95686  -0.89666  -0.86179
 Alpha  occ. eigenvalues --   -0.85314  -0.84394  -0.80766  -0.74358  -0.70190
 Alpha  occ. eigenvalues --   -0.69038  -0.65865  -0.63422  -0.62033  -0.58755
 Alpha  occ. eigenvalues --   -0.58353  -0.57920  -0.56005  -0.53215  -0.52110
 Alpha  occ. eigenvalues --   -0.51552  -0.51447  -0.50540  -0.50010  -0.49340
 Alpha  occ. eigenvalues --   -0.47975  -0.46727  -0.46013  -0.44553  -0.42927
 Alpha  occ. eigenvalues --   -0.41755  -0.40514  -0.33556  -0.31315  -0.30429
 Alpha  occ. eigenvalues --   -0.30019
 Alpha virt. eigenvalues --   -0.00761   0.02895   0.04576   0.04927   0.05588
 Alpha virt. eigenvalues --    0.05806   0.05932   0.06337   0.07098   0.07543
 Alpha virt. eigenvalues --    0.07894   0.07976   0.08410   0.09547   0.10230

 Mulliken charges:
               1
     1  C   -0.411675
     2  H    0.179345
     3  H    0.190520
     4  C   -0.355570
     5  H    0.188711
     6  N    0.130060
     7  H    0.174029
     8  H    0.156103
     9  H    0.159383
    10  C   -0.043208
    11  H    0.227999
    12  C   -0.341141
    13  C   -0.573518
    14  H    0.179768
    15  O   -0.341420
    16  C    1.513240
    17  C   -0.917422
    18  C    0.082440
    19  O   -0.234736
    20  C   -0.417857
    21  C   -0.502444
    22  H    0.248793
    23  H    0.322467
    24  H    0.229795
    25  C   -0.254698
    26  H    0.206353
    27  H    0.204682
 Sum of Mulliken charges =   0.00000

 Dipole moment (field-independent basis, Debye):
    X=              4.8452    Y=              2.3287    Z=             -1.9285  Tot=              5.7112
 Quadrupole moment (field-independent basis, Debye-Ang):
   XX=            -55.0671   YY=            -89.0009   ZZ=            -86.5414
   XY=              1.6221   XZ=              0.4933   YZ=              2.4106

 Normal termination of Gaussian 09 at Wed Jul 19 22:43:51 2017.
