 Gaussian 09, Revision D.01,
 Gaussian 09:  ES64L-G09RevD.01 24-Apr-2013

 -----------------------------------------------------------
 # wb97xd 6-311++g** opt td=(nstates=1,root=1) geom=allcheck
 -----------------------------------------------------------

 Structure from the checkpoint file:  "1_optS1.chk"
 -----------
 Geom Opt s0
 -----------
 Charge =  0 Multiplicity = 1

 SCF Done:  E(RwB97XD) =  -632.152645775     A.U. after   17 cycles
 SCF Done:  E(RwB97XD) =  -632.140809383     A.U. after   16 cycles
 SCF Done:  E(RwB97XD) =  -632.130673830     A.U. after   17 cycles
 SCF Done:  E(RwB97XD) =  -632.141213429     A.U. after   13 cycles
 SCF Done:  E(RwB97XD) =  -632.140537621     A.U. after   15 cycles
 SCF Done:  E(RwB97XD) =  -632.142089843     A.U. after   13 cycles
 SCF Done:  E(RwB97XD) =  -632.140811733     A.U. after   15 cycles
 SCF Done:  E(RwB97XD) =  -632.136123268     A.U. after   15 cycles
 SCF Done:  E(RwB97XD) =  -632.131384584     A.U. after   16 cycles
 SCF Done:  E(RwB97XD) =  -632.122518645     A.U. after   17 cycles
 SCF Done:  E(RwB97XD) =  -632.060824043     A.U. after   17 cycles
 SCF Done:  E(RwB97XD) =  -632.060939936     A.U. after   17 cycles
 SCF Done:  E(RwB97XD) =  -632.060986181     A.U. after   16 cycles
 SCF Done:  E(RwB97XD) =  -632.061069163     A.U. after   16 cycles
 SCF Done:  E(RwB97XD) =  -632.061191947     A.U. after   16 cycles
 SCF Done:  E(RwB97XD) =  -632.061376241     A.U. after   17 cycles
 SCF Done:  E(RwB97XD) =  -632.061518479     A.U. after   17 cycles
 SCF Done:  E(RwB97XD) =  -632.061616939     A.U. after   16 cycles
 SCF Done:  E(RwB97XD) =  -632.061603675     A.U. after   16 cycles
 SCF Done:  E(RwB97XD) =  -632.061596758     A.U. after   14 cycles

 Excitation energies and oscillator strengths:

 Excited State   1:      Singlet-A      0.6138 eV 2019.83 nm  f=0.0001  <S**2>=0.000
      49 -> 52         0.10478
      51 -> 52         0.68818
 This state for optimization and/or second-order correction.
 Total Energy, E(TD-HF/TD-KS) =  -632.039038785
 Copying the excited state density for this state as the 1-particle RhoCI density.

 Optimization completed.
    -- Stationary point found.

                         Standard orientation:
 ---------------------------------------------------------------------
 Center     Atomic      Atomic             Coordinates (Angstroms)
 Number     Number       Type             X           Y           Z
 ---------------------------------------------------------------------
      1          6           0        3.450747    1.319511    1.189997
      2          1           0        4.414770    1.505942    1.665528
      3          1           0        3.164228    2.215901    0.617300
      4          6           0        4.792796   -0.002092   -0.372228
      5          1           0        4.917769    0.773374   -1.143099
      6          7           0        3.551229    0.143905    0.359234
      7          1           0        2.710289    1.161524    1.977011
      8          1           0        4.817297   -0.977215   -0.861306
      9          1           0        5.637597    0.054247    0.318127
     10          6           0        2.412047   -0.359188   -0.226433
     11          1           0        2.576103   -1.196994   -0.892612
     12          6           0        1.125518    0.071806    0.002885
     13          6           0       -0.002884   -0.526376   -0.536328
     14          1           0        0.944546    0.927852    0.641766
     15          8           0        0.141707   -1.552111   -1.432977
     16          6           0       -1.376977   -0.027608   -0.309901
     17          6           0       -2.184759   -0.667905    0.716394
     18          6           0       -1.922739    0.992686   -1.069898
     19          8           0       -1.751865   -1.654326    1.342317
     20          6           0       -3.514557   -0.142417    0.951286
     21          6           0       -3.209535    1.456953   -0.823814
     22          1           0       -1.324811    1.447155   -1.851283
     23          1           0       -0.541333   -2.206766   -1.277110
     24          1           0       -4.097253   -0.606510    1.738343
     25          6           0       -4.000929    0.885032    0.197611
     26          1           0       -3.609949    2.273053   -1.413658
     27          1           0       -4.998964    1.270179    0.374194
 ---------------------------------------------------------------------

 The electronic state is 1-A.
 Alpha  occ. eigenvalues --  -19.32295 -19.13152 -14.54625 -10.43389 -10.41365
 Alpha  occ. eigenvalues --  -10.37226 -10.36577 -10.32846 -10.29941 -10.26714
 Alpha  occ. eigenvalues --  -10.25454 -10.25080 -10.23557 -10.22858  -1.20862
 Alpha  occ. eigenvalues --   -1.13252  -1.04894  -0.95519  -0.91011  -0.88632
 Alpha  occ. eigenvalues --   -0.86965  -0.82217  -0.78063  -0.75171  -0.71683
 Alpha  occ. eigenvalues --   -0.68815  -0.65915  -0.65101  -0.63748  -0.62187
 Alpha  occ. eigenvalues --   -0.59434  -0.58462  -0.55643  -0.54438  -0.54343
 Alpha  occ. eigenvalues --   -0.53201  -0.52777  -0.51555  -0.50302  -0.48979
 Alpha  occ. eigenvalues --   -0.46755  -0.45964  -0.44243  -0.43695  -0.40721
 Alpha  occ. eigenvalues --   -0.39754  -0.36648  -0.36002  -0.30467  -0.26533
 Alpha  occ. eigenvalues --   -0.21711
 Alpha virt. eigenvalues --   -0.06147   0.01349   0.03349   0.04037   0.04627
 Alpha virt. eigenvalues --    0.05974   0.06164   0.06766   0.07030   0.07114
 Alpha virt. eigenvalues --    0.07610   0.08414   0.08552   0.08898   0.09773

 Mulliken charges:
               1
     1  C   -0.464644
     2  H    0.190820
     3  H    0.215507
     4  C   -0.359057
     5  H    0.202768
     6  N    0.158638
     7  H    0.204576
     8  H    0.162259
     9  H    0.177091
    10  C   -0.208233
    11  H    0.254942
    12  C   -0.428020
    13  C   -0.458701
    14  H    0.239761
    15  O   -0.161810
    16  C    0.954155
    17  C   -0.498042
    18  C   -0.069383
    19  O   -0.461165
    20  C    0.016086
    21  C   -0.547092
    22  H    0.192639
    23  H    0.350435
    24  H    0.215195
    25  C   -0.236705
    26  H    0.170332
    27  H    0.187648
 Sum of Mulliken charges =   0.00000

 Dipole moment (field-independent basis, Debye):
    X=             12.6891    Y=              2.6781    Z=             -2.6862  Tot=             13.2439
 Quadrupole moment (field-independent basis, Debye-Ang):
   XX=            -61.3339   YY=            -85.5906   ZZ=            -88.1256
   XY=             -0.0784   XZ=              4.4600   YZ=              9.4439

 Normal termination of Gaussian 09 at Fri Oct 21 09:27:28 2016.
