 Gaussian 09, Revision D.01,
 Gaussian 09:  ES64L-G09RevD.01 24-Apr-2013

 -----------------------
 # wb97xd 6-311++g** opt
 -----------------------

 -----------
 Geom Opt s0
 -----------
 Symbolic Z-matrix:
 Charge =  0 Multiplicity = 1

 SCF Done:  E(RwB97XD) =  -631.909066244     A.U. after   18 cycles
 SCF Done:  E(RwB97XD) =  -632.044097691     A.U. after   15 cycles
 SCF Done:  E(RwB97XD) =  -632.147327699     A.U. after   16 cycles
 SCF Done:  E(RwB97XD) =  -632.143854932     A.U. after   18 cycles
 SCF Done:  E(RwB97XD) =  -632.151214128     A.U. after   14 cycles
 SCF Done:  E(RwB97XD) =  -632.152132835     A.U. after   15 cycles
 SCF Done:  E(RwB97XD) =  -632.152403299     A.U. after   15 cycles
 SCF Done:  E(RwB97XD) =  -632.152494569     A.U. after   14 cycles
 SCF Done:  E(RwB97XD) =  -632.152529964     A.U. after   13 cycles
 SCF Done:  E(RwB97XD) =  -632.152515060     A.U. after   13 cycles
 SCF Done:  E(RwB97XD) =  -632.152638540     A.U. after   12 cycles
 SCF Done:  E(RwB97XD) =  -632.152641615     A.U. after   12 cycles
 SCF Done:  E(RwB97XD) =  -632.152644015     A.U. after   12 cycles
 SCF Done:  E(RwB97XD) =  -632.152644234     A.U. after   10 cycles
 SCF Done:  E(RwB97XD) =  -632.152644454     A.U. after   10 cycles
 SCF Done:  E(RwB97XD) =  -632.152644593     A.U. after    9 cycles
 SCF Done:  E(RwB97XD) =  -632.152644842     A.U. after   10 cycles
 SCF Done:  E(RwB97XD) =  -632.152645143     A.U. after   10 cycles
 SCF Done:  E(RwB97XD) =  -632.152645587     A.U. after   10 cycles
 SCF Done:  E(RwB97XD) =  -632.152645775     A.U. after   10 cycles
 Optimization completed.
    -- Stationary point found.

                         Standard orientation:
 ---------------------------------------------------------------------
 Center     Atomic      Atomic             Coordinates (Angstroms)
 Number     Number       Type             X           Y           Z
 ---------------------------------------------------------------------
      1          6           0        3.727801    1.628145    0.036330
      2          1           0        4.775665    1.907272    0.144395
      3          1           0        3.345378    2.051267   -0.900297
      4          6           0        4.826931   -0.593504   -0.107932
      5          1           0        5.283559   -0.427116   -1.090329
      6          7           0        3.613736    0.184696    0.048668
      7          1           0        3.166484    2.062598    0.868877
      8          1           0        4.596388   -1.654034   -0.009431
      9          1           0        5.553881   -0.325812    0.664079
     10          6           0        2.404312   -0.398388    0.027827
     11          1           0        2.406350   -1.484580    0.015950
     12          6           0        1.194736    0.224960    0.029067
     13          6           0       -0.000736   -0.596655    0.030076
     14          1           0        1.121408    1.301311    0.018904
     15          8           0        0.083130   -1.837999    0.043844
     16          6           0       -1.345538    0.035994    0.008573
     17          6           0       -2.497091   -0.787316   -0.005144
     18          6           0       -1.532215    1.427273    0.002253
     19          8           0       -2.431648   -2.119129    0.000800
     20          6           0       -3.770983   -0.205043   -0.026342
     21          6           0       -2.789570    1.996353   -0.017985
     22          1           0       -0.671598    2.083773    0.013922
     23          1           0       -1.472094   -2.349198    0.018999
     24          1           0       -4.629560   -0.865807   -0.036820
     25          6           0       -3.913445    1.166443   -0.032541
     26          1           0       -2.902031    3.073724   -0.022148
     27          1           0       -4.907041    1.601187   -0.049026
 ---------------------------------------------------------------------

 The electronic state is 1-A.
 Alpha  occ. eigenvalues --  -19.25113 -19.22152 -14.48986 -10.37251 -10.35072
 Alpha  occ. eigenvalues --  -10.34493 -10.33910 -10.33642 -10.29459 -10.29214
 Alpha  occ. eigenvalues --  -10.29102 -10.27958 -10.27741 -10.27276  -1.16167
 Alpha  occ. eigenvalues --   -1.12610  -1.08747  -0.95676  -0.89352  -0.86237
 Alpha  occ. eigenvalues --   -0.85246  -0.83764  -0.80031  -0.73716  -0.70095
 Alpha  occ. eigenvalues --   -0.68820  -0.65136  -0.63087  -0.60380  -0.59082
 Alpha  occ. eigenvalues --   -0.58461  -0.58085  -0.55371  -0.53247  -0.51922
 Alpha  occ. eigenvalues --   -0.51702  -0.51468  -0.51344  -0.50371  -0.49498
 Alpha  occ. eigenvalues --   -0.47010  -0.46766  -0.46631  -0.45414  -0.42265
 Alpha  occ. eigenvalues --   -0.42213  -0.41613  -0.33716  -0.33501  -0.30046
 Alpha  occ. eigenvalues --   -0.28779
 Alpha virt. eigenvalues --    0.00355   0.02725   0.04161   0.04949   0.05726
 Alpha virt. eigenvalues --    0.05912   0.06107   0.06489   0.07648   0.08012
 Alpha virt. eigenvalues --    0.08142   0.08292   0.08518   0.09972   0.10494

 Mulliken charges:
               1
     1  C   -0.433996
     2  H    0.192068
     3  H    0.189822
     4  C   -0.305092
     5  H    0.189388
     6  N    0.124754
     7  H    0.184037
     8  H    0.142183
     9  H    0.172387
    10  C    0.631340
    11  H    0.226927
    12  C   -0.375333
    13  C   -0.670830
    14  H    0.136703
    15  O   -0.332556
    16  C    1.974679
    17  C    0.416896
    18  C   -1.768899
    19  O   -0.295267
    20  C   -0.485083
    21  C   -0.595054
    22  H    0.049109
    23  H    0.365039
    24  H    0.230073
    25  C   -0.387543
    26  H    0.222630
    27  H    0.201618
 Sum of Mulliken charges =   0.00000

 Dipole moment (field-independent basis, Debye):
    X=              5.7491    Y=              3.6062    Z=             -0.1541  Tot=              6.7882
 Quadrupole moment (field-independent basis, Debye-Ang):
   XX=            -58.3414   YY=            -83.6066   ZZ=            -87.6827
   XY=             -3.6827   XZ=             -0.3830   YZ=              0.2440

 Normal termination of Gaussian 09 at Sat Oct 15 18:33:04 2016.
