 Gaussian 09, Revision D.01,
 Gaussian 09:  ES64L-G09RevD.01 24-Apr-2013

 -----------------------------------------------------------
 # wb97xd 6-311++g** opt td=(nstates=1,root=1) geom=allcheck
 -----------------------------------------------------------

 Structure from the checkpoint file:  "2_optS1.chk"
 -----------
 Geom Opt s0
 -----------
 Charge =  0 Multiplicity = 1

 SCF Done:  E(RwB97XD) =  -731.396158151     A.U. after   16 cycles
 SCF Done:  E(RwB97XD) =  -731.388360816     A.U. after   16 cycles
 SCF Done:  E(RwB97XD) =  -731.380250087     A.U. after   16 cycles
 SCF Done:  E(RwB97XD) =  -731.387999955     A.U. after   14 cycles
 SCF Done:  E(RwB97XD) =  -731.387257218     A.U. after   16 cycles
 SCF Done:  E(RwB97XD) =  -731.383970063     A.U. after   16 cycles
 SCF Done:  E(RwB97XD) =  -731.378177301     A.U. after   16 cycles
 SCF Done:  E(RwB97XD) =  -731.378570309     A.U. after   16 cycles
 SCF Done:  E(RwB97XD) =  -731.374140532     A.U. after   16 cycles
 SCF Done:  E(RwB97XD) =  -731.368233475     A.U. after   16 cycles
 SCF Done:  E(RwB97XD) =  -731.306839554     A.U. after   14 cycles
 SCF Done:  E(RwB97XD) =  -731.306921768     A.U. after   13 cycles
 SCF Done:  E(RwB97XD) =  -731.306962012     A.U. after   16 cycles
 SCF Done:  E(RwB97XD) =  -731.307104340     A.U. after   16 cycles
 SCF Done:  E(RwB97XD) =  -731.307235884     A.U. after   16 cycles
 SCF Done:  E(RwB97XD) =  -731.307498536     A.U. after   16 cycles
 SCF Done:  E(RwB97XD) =  -731.307676599     A.U. after   15 cycles
 SCF Done:  E(RwB97XD) =  -731.307850407     A.U. after   13 cycles
 SCF Done:  E(RwB97XD) =  -731.307851225     A.U. after   14 cycles
 SCF Done:  E(RwB97XD) =  -731.307856465     A.U. after   14 cycles

 Excitation energies and oscillator strengths:

 Excited State   1:      Singlet-A      0.7488 eV 1655.76 nm  f=0.0001  <S**2>=0.000
      53 -> 56         0.10837
      55 -> 56         0.68635
 This state for optimization and/or second-order correction.
 Total Energy, E(TD-HF/TD-KS) =  -731.280338407
 Copying the excited state density for this state as the 1-particle RhoCI density.

 Optimization completed.
    -- Stationary point found.

                         Standard orientation:
 ---------------------------------------------------------------------
 Center     Atomic      Atomic             Coordinates (Angstroms)
 Number     Number       Type             X           Y           Z
 ---------------------------------------------------------------------
      1          6           0        3.724359   -1.565286   -1.060667
      2          1           0        4.666505   -1.861105   -1.524142
      3          1           0        3.397075   -2.372985   -0.387398
      4          6           0        5.178476   -0.155448    0.314485
      5          1           0        5.294867   -0.862951    1.148985
      6          7           0        3.909255   -0.313998   -0.365436
      7          1           0        2.979849   -1.450618   -1.851358
      8          1           0        5.258342    0.857667    0.711445
      9          1           0        5.998181   -0.311698   -0.390610
     10          6           0        2.815038    0.315798    0.178174
     11          1           0        3.039538    1.209591    0.746899
     12          6           0        1.501501   -0.059626    0.013584
     13          6           0        0.420424    0.657936    0.502536
     14          1           0        1.260046   -0.966297   -0.528052
     15          8           0        0.639334    1.758017    1.290108
     16          6           0       -0.982526    0.222784    0.340239
     17          6           0       -1.768331    0.803468   -0.741858
     18          6           0       -1.576681   -0.685322    1.204394
     19          8           0       -1.285329    1.691579   -1.465108
     20          6           0       -3.129642    0.340452   -0.920266
     21          6           0       -2.885593   -1.100829    1.019501
     22          1           0       -0.998049   -1.093153    2.024134
     23          1           0        0.016048    2.447347    1.053247
     24          1           0       -3.718426    0.742589   -1.734191
     25          6           0       -3.631530   -0.573253   -0.054859
     26          1           0       -3.350758   -1.826901    1.673911
     27          9           0       -4.892557   -1.012701   -0.195156
 ---------------------------------------------------------------------

 The electronic state is 1-A.
 Alpha  occ. eigenvalues --  -24.78328 -19.32598 -19.14075 -14.55108 -10.43828
 Alpha  occ. eigenvalues --  -10.41797 -10.37571 -10.36940 -10.33712 -10.33274
 Alpha  occ. eigenvalues --  -10.31182 -10.27910 -10.26066 -10.24459 -10.23569
 Alpha  occ. eigenvalues --   -1.30015  -1.21192  -1.13695  -1.05964  -0.95965
 Alpha  occ. eigenvalues --   -0.92035  -0.89010  -0.87567  -0.82859  -0.79497
 Alpha  occ. eigenvalues --   -0.75783  -0.72075  -0.69793  -0.66842  -0.66237
 Alpha  occ. eigenvalues --   -0.65040  -0.62584  -0.60572  -0.58938  -0.57951
 Alpha  occ. eigenvalues --   -0.57058  -0.54851  -0.54735  -0.54458  -0.53009
 Alpha  occ. eigenvalues --   -0.52783  -0.51626  -0.50111  -0.49564  -0.46743
 Alpha  occ. eigenvalues --   -0.46113  -0.45215  -0.44377  -0.43326  -0.40406
 Alpha  occ. eigenvalues --   -0.37181  -0.36514  -0.30280  -0.27584  -0.22773
 Alpha virt. eigenvalues --   -0.06600   0.01118   0.03128   0.03793   0.04385
 Alpha virt. eigenvalues --    0.05824   0.05982   0.06531   0.06757   0.07116
 Alpha virt. eigenvalues --    0.07900   0.08163   0.08565   0.08826   0.09917

 Mulliken charges:
               1
     1  C   -0.469171
     2  H    0.192837
     3  H    0.217525
     4  C   -0.359853
     5  H    0.203878
     6  N    0.159957
     7  H    0.205602
     8  H    0.161852
     9  H    0.179955
    10  C   -0.188393
    11  H    0.255653
    12  C   -0.441645
    13  C   -0.393305
    14  H    0.240374
    15  O   -0.164538
    16  C    1.001295
    17  C   -0.645478
    18  C   -0.271992
    19  O   -0.449179
    20  C    0.467658
    21  C   -0.086951
    22  H    0.201255
    23  H    0.352131
    24  H    0.243662
    25  C   -0.664811
    26  H    0.213636
    27  F   -0.161955
 Sum of Mulliken charges =   0.00000

 Dipole moment (field-independent basis, Debye):
    X=             14.4727    Y=             -2.5705    Z=              2.9187  Tot=             14.9862
 Quadrupole moment (field-independent basis, Debye-Ang):
   XX=            -68.5782   YY=            -87.6429   ZZ=            -92.6310
   XY=             -5.5914   XZ=             -4.0053   YZ=              8.5899

 Normal termination of Gaussian 09 at Fri Oct 21 07:41:32 2016.
