 Gaussian 09, Revision D.01,
 Gaussian 09:  ES64L-G09RevD.01 24-Apr-2013

 ---------------------------------------------
 # wb97xd 6-311++g** opt td=(nstates=1,root=1)
 ---------------------------------------------

 -----------------------------------
 2-opt with chain c=c rotated like 1
 -----------------------------------
 Symbolic Z-matrix:
 Charge =  0 Multiplicity = 1

 SCF Done:  E(RwB97XD) =  -731.369163939     A.U. after   17 cycles
 SCF Done:  E(RwB97XD) =  -731.368899127     A.U. after   18 cycles
 SCF Done:  E(RwB97XD) =  -731.366200298     A.U. after   17 cycles
 SCF Done:  E(RwB97XD) =  -731.370672863     A.U. after   17 cycles
 SCF Done:  E(RwB97XD) =  -731.368713392     A.U. after   17 cycles
 SCF Done:  E(RwB97XD) =  -731.368720706     A.U. after   14 cycles
 SCF Done:  E(RwB97XD) =  -731.368819199     A.U. after   15 cycles
 SCF Done:  E(RwB97XD) =  -731.368460664     A.U. after   15 cycles
 SCF Done:  E(RwB97XD) =  -731.367921070     A.U. after   15 cycles
 SCF Done:  E(RwB97XD) =  -731.368653443     A.U. after   15 cycles
 SCF Done:  E(RwB97XD) =  -731.298296660     A.U. after   18 cycles
 SCF Done:  E(RwB97XD) =  -731.368439834     A.U. after   11 cycles
 SCF Done:  E(RwB97XD) =  -731.366149767     A.U. after   16 cycles
 SCF Done:  E(RwB97XD) =  -731.368095372     A.U. after   16 cycles
 SCF Done:  E(RwB97XD) =  -731.367676345     A.U. after   15 cycles
 SCF Done:  E(RwB97XD) =  -731.367689291     A.U. after   12 cycles
 SCF Done:  E(RwB97XD) =  -731.367663672     A.U. after   12 cycles
 SCF Done:  E(RwB97XD) =  -731.367628016     A.U. after   11 cycles
 SCF Done:  E(RwB97XD) =  -731.367647467     A.U. after   10 cycles
 SCF Done:  E(RwB97XD) =  -731.367636835     A.U. after    9 cycles

 Excitation energies and oscillator strengths:

 Excited State   1:      Singlet-A      3.2584 eV  380.50 nm  f=0.0094  <S**2>=0.000
      52 -> 56         0.31658
      53 -> 56         0.43536
      54 -> 56        -0.28370
      55 -> 56         0.31661
 This state for optimization and/or second-order correction.
 Total Energy, E(TD-HF/TD-KS) =  -731.247891266
 Copying the excited state density for this state as the 1-particle RhoCI density.

 Optimization completed.
    -- Stationary point found.

                         Standard orientation:
 ---------------------------------------------------------------------
 Center     Atomic      Atomic             Coordinates (Angstroms)
 Number     Number       Type             X           Y           Z
 ---------------------------------------------------------------------
      1          6           0        3.768062   -1.531205    0.780522
      2          1           0        4.736424   -2.031322    0.816907
      3          1           0        3.411413   -1.381699    1.811090
      4          6           0        5.153672    0.426194    0.234509
      5          1           0        5.267016    0.829673    1.251315
      6          7           0        3.903032   -0.285527    0.061266
      7          1           0        3.065944   -2.191035    0.264483
      8          1           0        5.202915    1.256493   -0.472054
      9          1           0        5.990987   -0.244449    0.029593
     10          6           0        2.780476    0.449901   -0.210132
     11          1           0        2.972313    1.402684   -0.689727
     12          6           0        1.482880    0.058343    0.035538
     13          6           0        0.372163    0.858782   -0.292627
     14          1           0        1.263655   -0.863545    0.560542
     15          8           0        0.535879    2.063105   -0.778850
     16          6           0       -1.035217    0.487015   -0.106590
     17          6           0       -1.501036   -0.804254   -0.445873
     18          6           0       -1.961994    1.429694    0.365095
     19          8           0       -0.706558   -1.744327   -1.001184
     20          6           0       -2.826914   -1.149432   -0.220513
     21          6           0       -3.290371    1.099881    0.571816
     22          1           0       -1.613498    2.428036    0.597999
     23          1           0        0.138176   -1.341419   -1.236720
     24          1           0       -3.181035   -2.140745   -0.471431
     25          6           0       -3.687966   -0.194765    0.284437
     26          1           0       -4.004242    1.817615    0.953544
     27          9           0       -4.969821   -0.541417    0.490975
 ---------------------------------------------------------------------

 The electronic state is 1-A.
 Alpha  occ. eigenvalues --  -24.81898 -19.29008 -19.20563 -14.50036 -10.38000
 Alpha  occ. eigenvalues --  -10.36892 -10.36768 -10.36463 -10.34373 -10.34075
 Alpha  occ. eigenvalues --  -10.30267 -10.29920 -10.29106 -10.29019 -10.28936
 Alpha  occ. eigenvalues --   -1.33545  -1.18581  -1.09539  -1.08385  -0.96951
 Alpha  occ. eigenvalues --   -0.90187  -0.86905  -0.85873  -0.85705  -0.81261
 Alpha  occ. eigenvalues --   -0.75097  -0.72496  -0.69925  -0.67147  -0.64841
 Alpha  occ. eigenvalues --   -0.63174  -0.60878  -0.59380  -0.59003  -0.58763
 Alpha  occ. eigenvalues --   -0.56510  -0.56455  -0.53133  -0.52558  -0.52160
 Alpha  occ. eigenvalues --   -0.51749  -0.51531  -0.50218  -0.49689  -0.49021
 Alpha  occ. eigenvalues --   -0.47520  -0.46496  -0.45840  -0.43687  -0.42574
 Alpha  occ. eigenvalues --   -0.40849  -0.33925  -0.32051  -0.30866  -0.30507
 Alpha virt. eigenvalues --   -0.01062   0.02664   0.04370   0.05055   0.05245
 Alpha virt. eigenvalues --    0.05592   0.05925   0.06420   0.06643   0.07560
 Alpha virt. eigenvalues --    0.07777   0.08065   0.08550   0.09837   0.10024

 Mulliken charges:
               1
     1  C   -0.413815
     2  H    0.182014
     3  H    0.191132
     4  C   -0.354709
     5  H    0.190336
     6  N    0.129679
     7  H    0.175402
     8  H    0.157412
     9  H    0.160652
    10  C   -0.046682
    11  H    0.229586
    12  C   -0.380147
    13  C   -0.551625
    14  H    0.190919
    15  O   -0.339814
    16  C    1.459074
    17  C   -0.862406
    18  C    0.062914
    19  O   -0.225772
    20  C   -0.281903
    21  C   -0.225738
    22  H    0.259266
    23  H    0.327068
    24  H    0.259357
    25  C   -0.374830
    26  H    0.239168
    27  F   -0.156538
 Sum of Mulliken charges =   0.00000

 Dipole moment (field-independent basis, Debye):
    X=              6.6315    Y=             -2.1277    Z=              1.8777  Tot=              7.2132
 Quadrupole moment (field-independent basis, Debye-Ang):
   XX=            -68.3286   YY=            -92.0085   ZZ=            -90.1449
   XY=             -6.2517   XZ=              2.6988   YZ=              3.1223

 Normal termination of Gaussian 09 at Mon Sep  4 22:19:28 2017.
