 Gaussian 09, Revision D.01,
 Gaussian 09:  ES64L-G09RevD.01 24-Apr-2013

 -----------------------
 # wb97xd 6-311++g** opt
 -----------------------

 -----------
 Geom Opt s0
 -----------
 Symbolic Z-matrix:
 Charge =  0 Multiplicity = 1

 SCF Done:  E(RwB97XD) =  -731.395327252     A.U. after   16 cycles
 SCF Done:  E(RwB97XD) =  -731.396120239     A.U. after   13 cycles
 SCF Done:  E(RwB97XD) =  -731.396133620     A.U. after   13 cycles
 SCF Done:  E(RwB97XD) =  -731.396146184     A.U. after   13 cycles
 SCF Done:  E(RwB97XD) =  -731.396157559     A.U. after   11 cycles
 SCF Done:  E(RwB97XD) =  -731.396157496     A.U. after   10 cycles
 SCF Done:  E(RwB97XD) =  -731.396158150     A.U. after   10 cycles
 Optimization completed.
    -- Stationary point found.

                         Standard orientation:
 ---------------------------------------------------------------------
 Center     Atomic      Atomic             Coordinates (Angstroms)
 Number     Number       Type             X           Y           Z
 ---------------------------------------------------------------------
      1          6           0        3.978918   -1.800141   -0.039890
      2          1           0        5.002900   -2.155771   -0.151648
      3          1           0        3.568543   -2.198362    0.895772
      4          6           0        5.237362    0.335992    0.111420
      5          1           0        5.681855    0.133835    1.092458
      6          7           0        3.970475   -0.351985   -0.045546
      7          1           0        3.385454   -2.187971   -0.873106
      8          1           0        5.082732    1.410530    0.016860
      9          1           0        5.941827    0.019456   -0.662850
     10          6           0        2.807440    0.317277   -0.023796
     11          1           0        2.889535    1.400130   -0.008303
     12          6           0        1.555240   -0.216909   -0.027854
     13          6           0        0.423555    0.688693   -0.028412
     14          1           0        1.404757   -1.285341   -0.020663
     15          8           0        0.595589    1.921670   -0.037476
     16          6           0       -0.962273    0.157072   -0.011951
     17          6           0       -2.051152    1.065757   -0.000556
     18          6           0       -1.253268   -1.214519   -0.008214
     19          8           0       -1.884807    2.384974   -0.004111
     20          6           0       -3.366024    0.587464    0.015227
     21          6           0       -2.545770   -1.697735    0.006793
     22          1           0       -0.445380   -1.934195   -0.017746
     23          1           0       -0.907526    2.539368   -0.018225
     24          1           0       -4.191578    1.286745    0.023949
     25          6           0       -3.579421   -0.768749    0.018454
     26          1           0       -2.764077   -2.757223    0.009365
     27          9           0       -4.844029   -1.220631    0.033147
 ---------------------------------------------------------------------

 The electronic state is 1-A.
 Alpha  occ. eigenvalues --  -24.81955 -19.25952 -19.22606 -14.49366 -10.38095
 Alpha  occ. eigenvalues --  -10.37768 -10.36386 -10.34910 -10.34192 -10.33952
 Alpha  occ. eigenvalues --  -10.30813 -10.29726 -10.29012 -10.28637 -10.27712
 Alpha  occ. eigenvalues --   -1.33630  -1.17061  -1.13168  -1.09115  -0.97002
 Alpha  occ. eigenvalues --   -0.89817  -0.87030  -0.85569  -0.85338  -0.80449
 Alpha  occ. eigenvalues --   -0.74568  -0.72129  -0.69974  -0.65964  -0.64451
 Alpha  occ. eigenvalues --   -0.63368  -0.60888  -0.58962  -0.58785  -0.58098
 Alpha  occ. eigenvalues --   -0.56514  -0.55739  -0.53444  -0.52823  -0.52043
 Alpha  occ. eigenvalues --   -0.51790  -0.51549  -0.50539  -0.49805  -0.49454
 Alpha  occ. eigenvalues --   -0.47516  -0.47188  -0.46149  -0.43511  -0.42497
 Alpha  occ. eigenvalues --   -0.41974  -0.34360  -0.33599  -0.30939  -0.29330
 Alpha virt. eigenvalues --    0.00111   0.02525   0.03999   0.05081   0.05195
 Alpha virt. eigenvalues --    0.05729   0.06296   0.06465   0.07572   0.07718
 Alpha virt. eigenvalues --    0.08016   0.08380   0.08885   0.10278   0.10892

 Mulliken charges:
               1
     1  C   -0.437816
     2  H    0.193967
     3  H    0.190970
     4  C   -0.305327
     5  H    0.190219
     6  N    0.126466
     7  H    0.184128
     8  H    0.142395
     9  H    0.173409
    10  C    0.611907
    11  H    0.229583
    12  C   -0.422948
    13  C   -0.567691
    14  H    0.137114
    15  O   -0.334327
    16  C    2.108664
    17  C    0.456256
    18  C   -1.875602
    19  O   -0.290472
    20  C   -0.290004
    21  C   -0.380881
    22  H    0.060335
    23  H    0.368545
    24  H    0.256860
    25  C   -0.628199
    26  H    0.252423
    27  F   -0.149973
 Sum of Mulliken charges =   0.00000

 Dipole moment (field-independent basis, Debye):
    X=              7.2238    Y=             -3.4626    Z=              0.1280  Tot=              8.0119
 Quadrupole moment (field-independent basis, Debye-Ang):
   XX=            -70.1146   YY=            -88.3727   ZZ=            -91.0233
   XY=             -3.5613   XZ=              0.6065   YZ=              0.2806

 Normal termination of Gaussian 09 at Tue Oct 18 16:04:58 2016.
