 Gaussian 09, Revision D.01,
 Gaussian 09:  ES64L-G09RevD.01 24-Apr-2013

 ---------------------------------------------
 # wb97xd 6-311++g** opt td=(nstates=1,root=1)
 ---------------------------------------------

 ----------------------
 restarted optimization
 ----------------------
 Symbolic Z-matrix:
 Charge =  0 Multiplicity = 1

 SCF Done:  E(RwB97XD) =  -746.611523470     A.U. after   19 cycles
 SCF Done:  E(RwB97XD) =  -746.619092627     A.U. after   17 cycles
 SCF Done:  E(RwB97XD) =  -746.623633444     A.U. after   17 cycles
 SCF Done:  E(RwB97XD) =  -746.623683341     A.U. after   15 cycles
 SCF Done:  E(RwB97XD) =  -746.616991982     A.U. after   19 cycles
 SCF Done:  E(RwB97XD) =  -746.623364784     A.U. after   15 cycles
 SCF Done:  E(RwB97XD) =  -746.623284617     A.U. after   16 cycles
 SCF Done:  E(RwB97XD) =  -746.625784249     A.U. after   15 cycles
 SCF Done:  E(RwB97XD) =  -746.627608383     A.U. after   16 cycles
 SCF Done:  E(RwB97XD) =  -746.628390327     A.U. after   15 cycles
 SCF Done:  E(RwB97XD) =  -746.628682516     A.U. after   16 cycles
 SCF Done:  E(RwB97XD) =  -746.628672278     A.U. after   15 cycles
 SCF Done:  E(RwB97XD) =  -746.628416647     A.U. after   15 cycles
 SCF Done:  E(RwB97XD) =  -746.628457400     A.U. after   13 cycles
 SCF Done:  E(RwB97XD) =  -746.628427044     A.U. after   13 cycles
 SCF Done:  E(RwB97XD) =  -746.628415793     A.U. after   12 cycles
 SCF Done:  E(RwB97XD) =  -746.628415998     A.U. after   12 cycles
 SCF Done:  E(RwB97XD) =  -746.628422056     A.U. after   11 cycles
 SCF Done:  E(RwB97XD) =  -746.628430416     A.U. after   10 cycles
 SCF Done:  E(RwB97XD) =  -746.628437315     A.U. after   10 cycles

 Excitation energies and oscillator strengths:

 Excited State   1:      Singlet-A      2.4517 eV  505.71 nm  f=0.0002  <S**2>=0.000
      56 -> 60         0.16816
      59 -> 60         0.65950
      59 -> 77        -0.12241
 This state for optimization and/or second-order correction.
 Total Energy, E(TD-HF/TD-KS) =  -746.538338742
 Copying the excited state density for this state as the 1-particle RhoCI density.

 Optimization completed.
    -- Stationary point found.

                         Standard orientation:
 ---------------------------------------------------------------------
 Center     Atomic      Atomic             Coordinates (Angstroms)
 Number     Number       Type             X           Y           Z
 ---------------------------------------------------------------------
      1          6           0        4.632529   -0.937597   -1.111718
      2          1           0        5.618957   -1.386720   -1.010353
      3          1           0        3.998979   -1.606436   -1.698942
      4          6           0        4.861150   -1.163086    1.354611
      5          1           0        5.037778   -2.240431    1.301679
      6          7           0        4.070441   -0.728270    0.215020
      7          1           0        4.728214    0.015495   -1.636973
      8          1           0        4.332427   -0.936134    2.278688
      9          1           0        5.823756   -0.645672    1.360553
     10          6           0        2.878699   -0.160302    0.376579
     11          1           0        2.555643   -0.021678    1.402311
     12          6           0        2.026357    0.252191   -0.635219
     13          6           0        0.815063    0.993362   -0.291822
     14          1           0        2.357515    0.218286   -1.673089
     15          8           0        1.248768    2.221563   -0.197158
     16          6           0       -0.515966    0.521478   -0.197399
     17          6           0       -1.576840    1.425975    0.113837
     18          6           0       -0.859717   -0.829283   -0.376260
     19          8           0       -1.333993    2.743312    0.293711
     20          6           0       -2.871747    0.973929    0.242393
     21          6           0       -2.169194   -1.286725   -0.246309
     22          1           0       -0.080923   -1.542279   -0.626178
     23          1           0       -0.382633    2.903293    0.157862
     24          1           0       -3.661396    1.675309    0.481081
     25          6           0       -3.176056   -0.380456    0.066642
     26          1           0       -2.378172   -2.337523   -0.395724
     27          8           0       -4.492271   -0.707251    0.221271
     28          6           0       -4.859934   -2.051670    0.041104
     29          1           0       -5.935842   -2.098773    0.205274
     30          1           0       -4.635701   -2.398672   -0.975089
     31          1           0       -4.357782   -2.708063    0.762529
 ---------------------------------------------------------------------

 The electronic state is 1-A.
 Alpha  occ. eigenvalues --  -19.29774 -19.26621 -19.22601 -14.45699 -10.37590
 Alpha  occ. eigenvalues --  -10.37385 -10.36853 -10.34771 -10.32283 -10.31907
 Alpha  occ. eigenvalues --  -10.31886 -10.31661 -10.30235 -10.29660 -10.28546
 Alpha  occ. eigenvalues --  -10.26136  -1.19218  -1.16442  -1.10407  -1.06281
 Alpha  occ. eigenvalues --   -0.97229  -0.89134  -0.86401  -0.85719  -0.83328
 Alpha  occ. eigenvalues --   -0.82323  -0.78134  -0.73936  -0.71367  -0.68616
 Alpha  occ. eigenvalues --   -0.65413  -0.63720  -0.61500  -0.60235  -0.58961
 Alpha  occ. eigenvalues --   -0.57905  -0.57581  -0.56494  -0.54715  -0.53718
 Alpha  occ. eigenvalues --   -0.52191  -0.51698  -0.50496  -0.50166  -0.49635
 Alpha  occ. eigenvalues --   -0.49116  -0.48224  -0.47977  -0.46988  -0.45757
 Alpha  occ. eigenvalues --   -0.44874  -0.43008  -0.42697  -0.40456  -0.40066
 Alpha  occ. eigenvalues --   -0.34336  -0.32048  -0.31175  -0.25255
 Alpha virt. eigenvalues --   -0.00583   0.03241   0.03780   0.05030   0.05321
 Alpha virt. eigenvalues --    0.05680   0.06009   0.06506   0.06980   0.07167
 Alpha virt. eigenvalues --    0.07859   0.08244   0.08920   0.09228   0.09422

 Mulliken charges:
               1
     1  C   -0.430426
     2  H    0.181061
     3  H    0.170616
     4  C   -0.319024
     5  H    0.164613
     6  N    0.183778
     7  H    0.190406
     8  H    0.135843
     9  H    0.170879
    10  C   -0.675818
    11  H    0.154426
    12  C   -0.198223
    13  C    0.097142
    14  H    0.219167
    15  O   -0.241738
    16  C    1.079869
    17  C   -0.094013
    18  C   -0.511606
    19  O   -0.242233
    20  C   -0.350863
    21  C   -0.139019
    22  H    0.222544
    23  H    0.315203
    24  H    0.261085
    25  C   -0.626246
    26  H    0.228338
    27  O   -0.117901
    28  C   -0.383218
    29  H    0.219710
    30  H    0.168362
    31  H    0.167288
 Sum of Mulliken charges =   0.00000

 Dipole moment (field-independent basis, Debye):
    X=              1.3023    Y=             -6.1627    Z=              0.0984  Tot=              6.2995
 Quadrupole moment (field-independent basis, Debye-Ang):
   XX=            -72.0875   YY=            -99.3323   ZZ=            -93.4032
   XY=              2.3811   XZ=              2.4628   YZ=              0.3165

 Normal termination of Gaussian 09 at Thu Aug 24 00:24:47 2017.
