 Gaussian 09, Revision D.01,
 Gaussian 09:  ES64L-G09RevD.01 24-Apr-2013

 -----------------------------------------------------------
 # wb97xd 6-311++g** opt td=(nstates=1,root=1) geom=allcheck
 -----------------------------------------------------------

 Structure from the checkpoint file:  "3_optS1.chk"
 -----------
 Geom Opt s0
 -----------
 Charge =  0 Multiplicity = 1

 SCF Done:  E(RwB97XD) =  -746.674904018     A.U. after   17 cycles
 SCF Done:  E(RwB97XD) =  -746.666741811     A.U. after   16 cycles
 SCF Done:  E(RwB97XD) =  -746.659132042     A.U. after   16 cycles
 SCF Done:  E(RwB97XD) =  -746.666575326     A.U. after   13 cycles
 SCF Done:  E(RwB97XD) =  -746.666088527     A.U. after   15 cycles
 SCF Done:  E(RwB97XD) =  -746.663107839     A.U. after   16 cycles
 SCF Done:  E(RwB97XD) =  -746.657701891     A.U. after   16 cycles
 SCF Done:  E(RwB97XD) =  -746.656709143     A.U. after   15 cycles
 SCF Done:  E(RwB97XD) =  -746.637591995     A.U. after   17 cycles
 SCF Done:  E(RwB97XD) =  -746.635766258     A.U. after   17 cycles
 SCF Done:  E(RwB97XD) =  -746.582067508     A.U. after   17 cycles
 SCF Done:  E(RwB97XD) =  -746.582190445     A.U. after   17 cycles
 SCF Done:  E(RwB97XD) =  -746.582342699     A.U. after   13 cycles
 SCF Done:  E(RwB97XD) =  -746.582405306     A.U. after   12 cycles
 SCF Done:  E(RwB97XD) =  -746.582524375     A.U. after   15 cycles
 SCF Done:  E(RwB97XD) =  -746.582681664     A.U. after   16 cycles
 SCF Done:  E(RwB97XD) =  -746.582859875     A.U. after   16 cycles
 SCF Done:  E(RwB97XD) =  -746.582916572     A.U. after   16 cycles
 SCF Done:  E(RwB97XD) =  -746.582941591     A.U. after   15 cycles
 SCF Done:  E(RwB97XD) =  -746.582927442     A.U. after   15 cycles

 Excitation energies and oscillator strengths:

 Excited State   1:      Singlet-A      0.6773 eV 1830.50 nm  f=0.0001  <S**2>=0.000
      57 -> 60         0.12155
      59 -> 60         0.68294
 This state for optimization and/or second-order correction.
 Total Energy, E(TD-HF/TD-KS) =  -746.558036248
 Copying the excited state density for this state as the 1-particle RhoCI density.

 Optimization completed.
    -- Stationary point found.

                         Standard orientation:
 ---------------------------------------------------------------------
 Center     Atomic      Atomic             Coordinates (Angstroms)
 Number     Number       Type             X           Y           Z
 ---------------------------------------------------------------------
      1          6           0       -4.010866   -1.601816    1.216723
      2          1           0       -4.933948   -1.917362    1.705168
      3          1           0       -3.607604   -2.454687    0.647931
      4          6           0       -5.543122   -0.489301   -0.335729
      5          1           0       -5.571707   -1.277803   -1.102789
      6          7           0       -4.283275   -0.459547    0.378030
      7          1           0       -3.291292   -1.333821    1.993204
      8          1           0       -5.707423    0.471506   -0.826289
      9          1           0       -6.362300   -0.657621    0.367159
     10          6           0       -3.230019    0.184681   -0.231315
     11          1           0       -3.514138    0.985300   -0.902845
     12          6           0       -1.894842   -0.067600   -0.016729
     13          6           0       -0.861482    0.669428   -0.575431
     14          1           0       -1.592741   -0.882183    0.630255
     15          8           0       -1.152238    1.658999   -1.477143
     16          6           0        0.567121    0.371607   -0.342325
     17          6           0        1.279660    1.124420    0.680447
     18          6           0        1.258584   -0.570858   -1.078858
     19          8           0        0.702168    2.044208    1.294830
     20          6           0        2.659034    0.799482    0.929467
     21          6           0        2.595639   -0.856684   -0.823702
     22          1           0        0.742574   -1.117515   -1.859442
     23          1           0       -0.551285    2.393707   -1.342677
     24          1           0        3.185219    1.340715    1.705513
     25          6           0        3.297276   -0.166848    0.197201
     26          1           0        3.090740   -1.618983   -1.410225
     27          8           0        4.596277   -0.408171    0.495683
     28          6           0        5.291258   -1.409352   -0.217965
     29          1           0        5.359706   -1.171499   -1.285217
     30          1           0        6.293315   -1.433959    0.205771
     31          1           0        4.824695   -2.392226   -0.089395
 ---------------------------------------------------------------------

 The electronic state is 1-A.
 Alpha  occ. eigenvalues --  -19.32241 -19.24815 -19.12816 -14.54487 -10.43332
 Alpha  occ. eigenvalues --  -10.41238 -10.37141 -10.36480 -10.32726 -10.31318
 Alpha  occ. eigenvalues --  -10.31149 -10.29860 -10.27170 -10.25221 -10.23836
 Alpha  occ. eigenvalues --  -10.21837  -1.20792  -1.14469  -1.13125  -1.04548
 Alpha  occ. eigenvalues --   -0.95404  -0.91036  -0.88541  -0.86958  -0.83144
 Alpha  occ. eigenvalues --   -0.79251  -0.76727  -0.74811  -0.71574  -0.68571
 Alpha  occ. eigenvalues --   -0.65840  -0.65302  -0.63569  -0.62080  -0.59676
 Alpha  occ. eigenvalues --   -0.58395  -0.57384  -0.56377  -0.54372  -0.54263
 Alpha  occ. eigenvalues --   -0.53733  -0.53515  -0.52513  -0.51052  -0.49329
 Alpha  occ. eigenvalues --   -0.49070  -0.47690  -0.46107  -0.44700  -0.44332
 Alpha  occ. eigenvalues --   -0.42746  -0.41663  -0.39904  -0.37983  -0.36258
 Alpha  occ. eigenvalues --   -0.35241  -0.27267  -0.26379  -0.21817
 Alpha virt. eigenvalues --   -0.06041   0.01393   0.03384   0.03999   0.04686
 Alpha virt. eigenvalues --    0.05435   0.06161   0.06549   0.06898   0.07127
 Alpha virt. eigenvalues --    0.07510   0.08323   0.08675   0.08819   0.09092

 Mulliken charges:
               1
     1  C   -0.465058
     2  H    0.191202
     3  H    0.214214
     4  C   -0.359616
     5  H    0.202297
     6  N    0.159134
     7  H    0.205559
     8  H    0.162674
     9  H    0.176454
    10  C   -0.194683
    11  H    0.255606
    12  C   -0.397422
    13  C   -0.381967
    14  H    0.237087
    15  O   -0.158992
    16  C    0.924544
    17  C   -0.249898
    18  C   -0.363323
    19  O   -0.466369
    20  C   -0.374441
    21  C    0.046811
    22  H    0.185731
    23  H    0.354240
    24  H    0.233111
    25  C   -0.313134
    26  H    0.174982
    27  O   -0.132721
    28  C   -0.384518
    29  H    0.160606
    30  H    0.198612
    31  H    0.159277
 Sum of Mulliken charges =   0.00000

 Dipole moment (field-independent basis, Debye):
    X=            -11.8909    Y=             -5.4148    Z=             -3.5581  Tot=             13.5416
 Quadrupole moment (field-independent basis, Debye-Ang):
   XX=            -52.8517   YY=            -96.8539   ZZ=            -99.8856
   XY=             -0.5552   XZ=             -6.0032   YZ=            -10.0833

 Normal termination of Gaussian 09 at Fri Oct 21 21:20:29 2016.
