 Gaussian 09, Revision D.01,
 Gaussian 09:  ES64L-G09RevD.01 24-Apr-2013

 -----------------------------------------------------------
 # wb97xd 6-311++g** opt td=(nstates=1,root=1) geom=allcheck
 -----------------------------------------------------------

 Structure from the checkpoint file:  "4_optS1.chk"
 -----------
 Geom Opt s0
 -----------
 Charge =  0 Multiplicity = 1

 SCF Done:  E(RwB97XD) =  -731.392711833     A.U. after   16 cycles
 SCF Done:  E(RwB97XD) =  -731.378330143     A.U. after   16 cycles
 SCF Done:  E(RwB97XD) =  -731.367713451     A.U. after   16 cycles
 SCF Done:  E(RwB97XD) =  -731.379129275     A.U. after   13 cycles
 SCF Done:  E(RwB97XD) =  -731.380431372     A.U. after   15 cycles
 SCF Done:  E(RwB97XD) =  -731.380132256     A.U. after   15 cycles
 SCF Done:  E(RwB97XD) =  -731.371687150     A.U. after   15 cycles
 SCF Done:  E(RwB97XD) =  -731.373740900     A.U. after   14 cycles
 SCF Done:  E(RwB97XD) =  -731.352495487     A.U. after   17 cycles
 SCF Done:  E(RwB97XD) =  -731.368139650     A.U. after   13 cycles
 SCF Done:  E(RwB97XD) =  -731.298074054     A.U. after   18 cycles
 SCF Done:  E(RwB97XD) =  -731.298295035     A.U. after   18 cycles
 SCF Done:  E(RwB97XD) =  -731.298516653     A.U. after   17 cycles
 SCF Done:  E(RwB97XD) =  -731.298788748     A.U. after   19 cycles
 SCF Done:  E(RwB97XD) =  -731.298867931     A.U. after   17 cycles
 SCF Done:  E(RwB97XD) =  -731.299081387     A.U. after   17 cycles
 SCF Done:  E(RwB97XD) =  -731.299115702     A.U. after   17 cycles
 SCF Done:  E(RwB97XD) =  -731.299223972     A.U. after   16 cycles
 SCF Done:  E(RwB97XD) =  -731.299208776     A.U. after   15 cycles
 SCF Done:  E(RwB97XD) =  -731.299193543     A.U. after   14 cycles

 Excitation energies and oscillator strengths:

 Excited State   1:      Singlet-A      0.4434 eV 2796.28 nm  f=0.0001  <S**2>=0.000
      55 -> 56         0.69101
 This state for optimization and/or second-order correction.
 Total Energy, E(TD-HF/TD-KS) =  -731.282899281
 Copying the excited state density for this state as the 1-particle RhoCI density.

 Optimization completed.
    -- Stationary point found.

                         Standard orientation:
 ---------------------------------------------------------------------
 Center     Atomic      Atomic             Coordinates (Angstroms)
 Number     Number       Type             X           Y           Z
 ---------------------------------------------------------------------
      1          6           0       -3.667593    0.933266   -1.581637
      2          1           0       -4.637943    1.040836   -2.067941
      3          1           0       -3.255318    1.937698   -1.397897
      4          6           0       -5.047530    0.410930    0.377763
      5          1           0       -5.082768    1.419330    0.816064
      6          7           0       -3.826832    0.173570   -0.364777
      7          1           0       -3.001287    0.406833   -2.268585
      8          1           0       -5.129702   -0.317098    1.186476
      9          1           0       -5.910753    0.287259   -0.279965
     10          6           0       -2.708585   -0.179099    0.352119
     11          1           0       -2.907735   -0.676370    1.293124
     12          6           0       -1.402983    0.004924   -0.043676
     13          6           0       -0.304210   -0.439633    0.674086
     14          1           0       -1.184618    0.523810   -0.969303
     15          8           0       -0.484100   -1.012295    1.905856
     16          6           0        1.093971   -0.213793    0.245922
     17          6           0        1.779998   -1.286217   -0.457234
     18          6           0        1.764587    0.958168    0.539492
     19          8           0        1.225386   -2.386117   -0.638919
     20          6           0        3.139040   -1.039358   -0.897881
     21          6           0        3.068329    1.120539    0.102081
     22          1           0        1.279905    1.759220    1.083129
     23          1           0        0.091501   -1.775373    1.986766
     24          1           0        3.634068   -1.831580   -1.446250
     25          6           0        3.767070    0.138016   -0.621101
     26          9           0        3.698413    2.267938    0.364182
     27          1           0        4.783921    0.339832   -0.934917
 ---------------------------------------------------------------------

 The electronic state is 1-A.
 Alpha  occ. eigenvalues --  -24.77695 -19.32485 -19.13339 -14.55119 -10.43789
 Alpha  occ. eigenvalues --  -10.41796 -10.37547 -10.36926 -10.33259 -10.31891
 Alpha  occ. eigenvalues --  -10.30365 -10.27256 -10.26242 -10.26000 -10.23997
 Alpha  occ. eigenvalues --   -1.29761  -1.21118  -1.13690  -1.05249  -0.95929
 Alpha  occ. eigenvalues --   -0.91982  -0.89027  -0.87569  -0.83232  -0.78762
 Alpha  occ. eigenvalues --   -0.75592  -0.72035  -0.70164  -0.66476  -0.66028
 Alpha  occ. eigenvalues --   -0.64971  -0.62549  -0.61625  -0.59169  -0.58124
 Alpha  occ. eigenvalues --   -0.55181  -0.54802  -0.54755  -0.54058  -0.52922
 Alpha  occ. eigenvalues --   -0.52537  -0.51718  -0.50894  -0.48525  -0.47737
 Alpha  occ. eigenvalues --   -0.46504  -0.45541  -0.43791  -0.42363  -0.40122
 Alpha  occ. eigenvalues --   -0.36927  -0.35905  -0.31503  -0.26972  -0.21495
 Alpha virt. eigenvalues --   -0.06578   0.01162   0.03171   0.03908   0.04454
 Alpha virt. eigenvalues --    0.05953   0.06219   0.06559   0.06750   0.07142
 Alpha virt. eigenvalues --    0.07506   0.07890   0.08517   0.09161   0.09783

 Mulliken charges:
               1
     1  C   -0.466000
     2  H    0.192735
     3  H    0.216684
     4  C   -0.359970
     5  H    0.206250
     6  N    0.158548
     7  H    0.207571
     8  H    0.164101
     9  H    0.177380
    10  C   -0.160982
    11  H    0.253722
    12  C   -0.466970
    13  C   -0.445299
    14  H    0.239749
    15  O   -0.165517
    16  C    0.940525
    17  C   -0.533355
    18  C    0.171546
    19  O   -0.463757
    20  C   -0.141490
    21  C   -0.862908
    22  H    0.224975
    23  H    0.353200
    24  H    0.221822
    25  C    0.277369
    26  F   -0.164524
    27  H    0.224594
 Sum of Mulliken charges =   0.00000

 Dipole moment (field-independent basis, Debye):
    X=            -13.2646    Y=              3.4588    Z=              1.2182  Tot=             13.7621
 Quadrupole moment (field-independent basis, Debye-Ang):
   XX=            -60.5699   YY=           -102.5740   ZZ=            -84.4992
   XY=             -6.8817   XZ=              1.3202   YZ=             -9.2762

 Normal termination of Gaussian 09 at Fri Oct 21 08:04:27 2016.
