 Gaussian 09, Revision D.01,
 Gaussian 09:  ES64L-G09RevD.01 24-Apr-2013

 -----------------------
 # wb97xd 6-311++g** opt
 -----------------------

 -----------
 Geom Opt s0
 -----------
 Symbolic Z-matrix:
 Charge =  0 Multiplicity = 1

 SCF Done:  E(RwB97XD) =  -731.391764402     A.U. after   16 cycles
 SCF Done:  E(RwB97XD) =  -731.392657701     A.U. after   13 cycles
 SCF Done:  E(RwB97XD) =  -731.392701419     A.U. after   12 cycles
 SCF Done:  E(RwB97XD) =  -731.392699906     A.U. after   13 cycles
 SCF Done:  E(RwB97XD) =  -731.392709505     A.U. after   12 cycles
 SCF Done:  E(RwB97XD) =  -731.392711216     A.U. after   11 cycles
 SCF Done:  E(RwB97XD) =  -731.392711623     A.U. after   10 cycles
 SCF Done:  E(RwB97XD) =  -731.392711833     A.U. after    9 cycles
 Optimization completed.
    -- Stationary point found.

                         Standard orientation:
 ---------------------------------------------------------------------
 Center     Atomic      Atomic             Coordinates (Angstroms)
 Number     Number       Type             X           Y           Z
 ---------------------------------------------------------------------
      1          6           0       -3.773285    1.787664   -0.045334
      2          1           0       -4.784385    2.175603   -0.166344
      3          1           0       -3.357886    2.174860    0.892577
      4          6           0       -5.098908   -0.308309    0.107211
      5          1           0       -5.540329   -0.087964    1.085581
      6          7           0       -3.810608    0.339644   -0.047344
      7          1           0       -3.160737    2.153612   -0.874472
      8          1           0       -4.976511   -1.387445    0.018139
      9          1           0       -5.790287    0.026225   -0.671254
     10          6           0       -2.670105   -0.365710   -0.023750
     11          1           0       -2.786457   -1.445404   -0.006967
     12          6           0       -1.400814    0.128626   -0.027030
     13          6           0       -0.300914   -0.813182   -0.025887
     14          1           0       -1.216423    1.191654   -0.020142
     15          8           0       -0.508247   -2.039141   -0.035773
     16          6           0        1.105263   -0.323406   -0.008581
     17          6           0        2.163958   -1.259770    0.002846
     18          6           0        1.424351    1.044346   -0.003829
     19          8           0        1.965786   -2.580041   -0.001648
     20          6           0        3.490979   -0.810104    0.019595
     21          6           0        2.734636    1.448904    0.012229
     22          1           0        0.656295    1.805258   -0.012909
     23          1           0        0.988703   -2.712726   -0.016417
     24          1           0        4.279274   -1.552541    0.028214
     25          6           0        3.781884    0.537917    0.024326
     26          9           0        3.017289    2.770971    0.016306
     27          1           0        4.804825    0.894217    0.037250
 ---------------------------------------------------------------------

 The electronic state is 1-A.
 Alpha  occ. eigenvalues --  -24.81218 -19.25560 -19.22705 -14.49457 -10.37852
 Alpha  occ. eigenvalues --  -10.36622 -10.35634 -10.35006 -10.34226 -10.33938
 Alpha  occ. eigenvalues --  -10.30309 -10.30248 -10.30232 -10.29080 -10.27764
 Alpha  occ. eigenvalues --   -1.32636  -1.16641  -1.13167  -1.09190  -0.96982
 Alpha  occ. eigenvalues --   -0.89921  -0.87437  -0.85593  -0.84445  -0.80660
 Alpha  occ. eigenvalues --   -0.75400  -0.71360  -0.69762  -0.65792  -0.64109
 Alpha  occ. eigenvalues --   -0.62917  -0.60697  -0.59902  -0.58816  -0.58377
 Alpha  occ. eigenvalues --   -0.55803  -0.54844  -0.53070  -0.52506  -0.52038
 Alpha  occ. eigenvalues --   -0.51733  -0.51646  -0.50664  -0.49835  -0.49757
 Alpha  occ. eigenvalues --   -0.47503  -0.47242  -0.45465  -0.43770  -0.42073
 Alpha  occ. eigenvalues --   -0.42003  -0.34622  -0.34348  -0.30347  -0.29003
 Alpha virt. eigenvalues --   -0.00387   0.02610   0.04317   0.05142   0.05199
 Alpha virt. eigenvalues --    0.05691   0.05911   0.06871   0.07666   0.08019
 Alpha virt. eigenvalues --    0.08227   0.08450   0.08476   0.10250   0.11122

 Mulliken charges:
               1
     1  C   -0.436310
     2  H    0.193829
     3  H    0.193343
     4  C   -0.309884
     5  H    0.190197
     6  N    0.123426
     7  H    0.185401
     8  H    0.141744
     9  H    0.174102
    10  C    0.494282
    11  H    0.231933
    12  C   -0.367326
    13  C   -0.497390
    14  H    0.099664
    15  O   -0.331030
    16  C    1.844776
    17  C    0.096846
    18  C   -1.703021
    19  O   -0.299908
    20  C   -0.415746
    21  C   -0.594766
    22  H    0.172040
    23  H    0.362229
    24  H    0.239301
    25  C    0.127896
    26  F   -0.162923
    27  H    0.247295
 Sum of Mulliken charges =   0.00000

 Dipole moment (field-independent basis, Debye):
    X=             -6.0177    Y=              2.5153    Z=              0.1343  Tot=              6.5236
 Quadrupole moment (field-independent basis, Debye-Ang):
   XX=            -59.0216   YY=            -96.6252   ZZ=            -90.9145
   XY=             -4.7948   XZ=             -0.4457   YZ=             -0.2835

 Normal termination of Gaussian 09 at Tue Oct 18 17:02:52 2016.
