 Gaussian 09, Revision D.01,
 Gaussian 09:  ES64L-G09RevD.01 24-Apr-2013

 ---------------------------------------------
 # wb97xd 6-311++g** opt td=(nstates=1,root=1)
 ---------------------------------------------

 -----
 title
 -----
 Symbolic Z-matrix:
 Charge =  0 Multiplicity = 1

 SCF Done:  E(RwB97XD) =  -731.230910000     A.U. after   26 cycles
 SCF Done:  E(RwB97XD) =  -731.302346405     A.U. after   24 cycles
 SCF Done:  E(RwB97XD) =  -731.330965106     A.U. after   20 cycles
 SCF Done:  E(RwB97XD) =  -731.335793952     A.U. after   18 cycles
 SCF Done:  E(RwB97XD) =  -731.340255744     A.U. after   17 cycles
 SCF Done:  E(RwB97XD) =  -731.343614122     A.U. after   17 cycles
 SCF Done:  E(RwB97XD) =  -731.345470110     A.U. after   16 cycles
 SCF Done:  E(RwB97XD) =  -731.346048204     A.U. after   15 cycles
 SCF Done:  E(RwB97XD) =  -731.346089150     A.U. after   14 cycles
 SCF Done:  E(RwB97XD) =  -731.345953090     A.U. after   13 cycles
 SCF Done:  E(RwB97XD) =  -731.345753588     A.U. after   13 cycles
 SCF Done:  E(RwB97XD) =  -731.345701898     A.U. after   12 cycles
 SCF Done:  E(RwB97XD) =  -731.345671546     A.U. after   13 cycles
 SCF Done:  E(RwB97XD) =  -731.345693086     A.U. after   13 cycles
 SCF Done:  E(RwB97XD) =  -731.345727672     A.U. after   11 cycles
 SCF Done:  E(RwB97XD) =  -731.345762116     A.U. after   11 cycles
 SCF Done:  E(RwB97XD) =  -731.345778270     A.U. after   12 cycles
 SCF Done:  E(RwB97XD) =  -731.345773031     A.U. after   10 cycles

 Excitation energies and oscillator strengths:

 Excited State   1:      Singlet-A      2.2330 eV  555.23 nm  f=0.0001  <S**2>=0.000
      53 -> 56        -0.16042
      55 -> 56         0.66058
      55 -> 70        -0.11154
 This state for optimization and/or second-order correction.
 Total Energy, E(TD-HF/TD-KS) =  -731.263711470
 Copying the excited state density for this state as the 1-particle RhoCI density.

 Optimization completed.
    -- Stationary point found.

                         Standard orientation:
 ---------------------------------------------------------------------
 Center     Atomic      Atomic             Coordinates (Angstroms)
 Number     Number       Type             X           Y           Z
 ---------------------------------------------------------------------
      1          6           0       -4.176344    0.550164   -1.101919
      2          1           0       -5.233729    0.780823   -0.985617
      3          1           0       -3.684599    1.383333   -1.610295
      4          6           0       -4.406554    0.688280    1.369661
      5          1           0       -4.642019    1.755494    1.350270
      6          7           0       -3.594379    0.334772    0.216080
      7          1           0       -4.076831   -0.351215   -1.709119
      8          1           0       -3.865123    0.461572    2.286256
      9          1           0       -5.338478    0.118453    1.355792
     10          6           0       -2.352685   -0.114002    0.360115
     11          1           0       -2.017026   -0.256689    1.381228
     12          6           0       -1.460187   -0.393861   -0.663541
     13          6           0       -0.174208   -1.016634   -0.341662
     14          1           0       -1.782285   -0.345839   -1.701944
     15          8           0       -0.451214   -2.284044   -0.301515
     16          6           0        1.073020   -0.382888   -0.161261
     17          6           0        2.234593   -1.151951    0.146669
     18          6           0        1.217257    1.020909   -0.261033
     19          8           0        2.170683   -2.501749    0.251528
     20          6           0        3.450178   -0.527768    0.347271
     21          6           0        2.449515    1.598055   -0.052956
     22          1           0        0.371386    1.651597   -0.506451
     23          1           0        1.255780   -2.782483    0.075992
     24          1           0        4.310086   -1.143937    0.581789
     25          6           0        3.577903    0.861164    0.252138
     26          1           0        4.528226    1.354524    0.406161
     27          9           0        2.553842    2.947611   -0.155291
 ---------------------------------------------------------------------

 The electronic state is 1-A.
 Alpha  occ. eigenvalues --  -24.82253 -19.27659 -19.23972 -14.46260 -10.38649
 Alpha  occ. eigenvalues --  -10.38257 -10.37772 -10.32660 -10.32635 -10.32412
 Alpha  occ. eigenvalues --  -10.32292 -10.32113 -10.32064 -10.30840 -10.26725
 Alpha  occ. eigenvalues --   -1.33528  -1.17383  -1.11893  -1.06844  -0.98705
 Alpha  occ. eigenvalues --   -0.90200  -0.86887  -0.86326  -0.83751  -0.79761
 Alpha  occ. eigenvalues --   -0.77074  -0.72337  -0.69587  -0.66245  -0.64669
 Alpha  occ. eigenvalues --   -0.62442  -0.61076  -0.60415  -0.58210  -0.56975
 Alpha  occ. eigenvalues --   -0.56824  -0.54821  -0.54574  -0.53163  -0.52284
 Alpha  occ. eigenvalues --   -0.51462  -0.50665  -0.50550  -0.49494  -0.48448
 Alpha  occ. eigenvalues --   -0.47664  -0.46943  -0.45213  -0.44033  -0.43117
 Alpha  occ. eigenvalues --   -0.40929  -0.35787  -0.35374  -0.31481  -0.26002
 Alpha virt. eigenvalues --   -0.02512   0.03275   0.04511   0.04830   0.05171
 Alpha virt. eigenvalues --    0.05665   0.06059   0.06761   0.07449   0.07916
 Alpha virt. eigenvalues --    0.08099   0.08969   0.09267   0.09654   0.09800

 Mulliken charges:
               1
     1  C   -0.431577
     2  H    0.177330
     3  H    0.179422
     4  C   -0.320715
     5  H    0.167202
     6  N    0.179056
     7  H    0.185713
     8  H    0.135176
     9  H    0.171836
    10  C   -0.663133
    11  H    0.154694
    12  C   -0.161206
    13  C    0.117194
    14  H    0.220225
    15  O   -0.234293
    16  C    1.068326
    17  C   -0.380920
    18  C   -0.561184
    19  O   -0.248299
    20  C   -0.286122
    21  C   -0.431430
    22  H    0.265759
    23  H    0.314278
    24  H    0.249865
    25  C    0.044026
    26  H    0.257037
    27  F   -0.168260
 Sum of Mulliken charges =   0.00000

 Dipole moment (field-independent basis, Debye):
    X=             -2.5918    Y=              2.6072    Z=              0.7175  Tot=              3.7457
 Quadrupole moment (field-independent basis, Debye-Ang):
   XX=            -65.3862   YY=           -102.6609   ZZ=            -85.0428
   XY=             -4.5130   XZ=              0.0287   YZ=              0.0370

 Normal termination of Gaussian 09 at Mon Sep  4 23:44:02 2017.
