 Gaussian 09, Revision D.01,
 Gaussian 09:  ES64L-G09RevD.01 24-Apr-2013

 ---------------------------------------------
 # wb97xd 6-311++g** opt td=(nstates=1,root=1)
 ---------------------------------------------

 -----------
 Geom Opt s1
 -----------
 Symbolic Z-matrix:
 Charge =  0 Multiplicity = 1

 SCF Done:  E(RwB97XD) =  -746.663287945     A.U. after   17 cycles
 SCF Done:  E(RwB97XD) =  -746.653182619     A.U. after   16 cycles
 SCF Done:  E(RwB97XD) =  -746.631228355     A.U. after   16 cycles
 SCF Done:  E(RwB97XD) =  -746.654532511     A.U. after   14 cycles
 SCF Done:  E(RwB97XD) =  -746.656253427     A.U. after   15 cycles
 SCF Done:  E(RwB97XD) =  -746.653950218     A.U. after   17 cycles
 SCF Done:  E(RwB97XD) =  -746.650445281     A.U. after   17 cycles
 SCF Done:  E(RwB97XD) =  -746.650070855     A.U. after   16 cycles
 SCF Done:  E(RwB97XD) =  -746.653440388     A.U. after   15 cycles
 SCF Done:  E(RwB97XD) =  -746.652893309     A.U. after   15 cycles
 SCF Done:  E(RwB97XD) =  -746.572627490     A.U. after   19 cycles
 SCF Done:  E(RwB97XD) =  -746.573361009     A.U. after   20 cycles
 SCF Done:  E(RwB97XD) =  -746.572742034     A.U. after   16 cycles
 SCF Done:  E(RwB97XD) =  -746.572931108     A.U. after   19 cycles
 SCF Done:  E(RwB97XD) =  -746.573141633     A.U. after   20 cycles
 SCF Done:  E(RwB97XD) =  -746.573322371     A.U. after   18 cycles
 SCF Done:  E(RwB97XD) =  -746.573218022     A.U. after   18 cycles
 SCF Done:  E(RwB97XD) =  -746.573218478     A.U. after   18 cycles
 SCF Done:  E(RwB97XD) =  -746.573201827     A.U. after   18 cycles
 SCF Done:  E(RwB97XD) =  -746.573205170     A.U. after   10 cycles

 Excitation energies and oscillator strengths:

 Excited State   1:      Singlet-A      0.2234 eV 5549.05 nm  f=0.0000  <S**2>=0.000
      59 -> 60         0.69249
 This state for optimization and/or second-order correction.
 Total Energy, E(TD-HF/TD-KS) =  -746.564994146
 Copying the excited state density for this state as the 1-particle RhoCI density.

 Optimization completed.
    -- Stationary point found.

                         Standard orientation:
 ---------------------------------------------------------------------
 Center     Atomic      Atomic             Coordinates (Angstroms)
 Number     Number       Type             X           Y           Z
 ---------------------------------------------------------------------
      1          6           0       -3.907186   -1.410528   -1.439293
      2          1           0       -4.808906   -1.949405   -1.734084
      3          1           0       -3.673963   -0.665800   -2.216195
      4          6           0       -5.435623   -0.248804    0.074705
      5          1           0       -5.632929    0.624422   -0.565155
      6          7           0       -4.116740   -0.807215   -0.144567
      7          1           0       -3.085275   -2.128480   -1.391803
      8          1           0       -5.532959    0.061768    1.116385
      9          1           0       -6.196337   -1.006637   -0.126512
     10          6           0       -3.061209   -0.160495    0.462424
     11          1           0       -3.311082    0.352014    1.383058
     12          6           0       -1.753673   -0.163979    0.034059
     13          6           0       -0.709862    0.432967    0.722389
     14          1           0       -1.486456   -0.648693   -0.897053
     15          8           0       -0.945719    0.984666    1.953543
     16          6           0        0.693148    0.434708    0.248031
     17          6           0        1.167725    1.593231   -0.488748
     18          6           0        1.548389   -0.598154    0.536908
     19          8           0        0.435858    2.584186   -0.680396
     20          6           0        2.536102    1.555464   -0.953067
     21          6           0        2.877382   -0.585524    0.085765
     22          1           0        1.209267   -1.455986    1.104887
     23          1           0       -0.414191    1.776362    2.050300
     24          1           0        2.885682    2.403902   -1.529559
     25          6           0        3.363534    0.504510   -0.672453
     26          1           0        4.384312    0.514208   -1.032516
     27          8           0        3.612837   -1.658209    0.412090
     28          6           0        4.966586   -1.724685   -0.001305
     29          1           0        5.048105   -1.723035   -1.092353
     30          1           0        5.546931   -0.896295    0.415693
     31          1           0        5.349282   -2.665250    0.388507
 ---------------------------------------------------------------------

 The electronic state is 1-A.
 Alpha  occ. eigenvalues --  -19.32410 -19.24076 -19.12287 -14.54385 -10.43329
 Alpha  occ. eigenvalues --  -10.41190 -10.36911 -10.36375 -10.32726 -10.31365
 Alpha  occ. eigenvalues --  -10.29667 -10.29281 -10.26001 -10.25592 -10.25194
 Alpha  occ. eigenvalues --  -10.22962  -1.20932  -1.14276  -1.12989  -1.04168
 Alpha  occ. eigenvalues --   -0.95383  -0.90996  -0.88370  -0.86853  -0.82432
 Alpha  occ. eigenvalues --   -0.81189  -0.76182  -0.73477  -0.71567  -0.69277
 Alpha  occ. eigenvalues --   -0.65752  -0.65165  -0.63639  -0.61917  -0.60584
 Alpha  occ. eigenvalues --   -0.58379  -0.57433  -0.54877  -0.54271  -0.54110
 Alpha  occ. eigenvalues --   -0.53475  -0.53370  -0.52361  -0.51056  -0.50133
 Alpha  occ. eigenvalues --   -0.47883  -0.47815  -0.46953  -0.45552  -0.44340
 Alpha  occ. eigenvalues --   -0.42280  -0.41367  -0.40215  -0.37773  -0.36324
 Alpha  occ. eigenvalues --   -0.32944  -0.30724  -0.26021  -0.19660
 Alpha virt. eigenvalues --   -0.05964   0.01598   0.03480   0.04346   0.05060
 Alpha virt. eigenvalues --    0.05480   0.06138   0.06485   0.06858   0.07306
 Alpha virt. eigenvalues --    0.07672   0.08006   0.08627   0.09100   0.09170

 Mulliken charges:
               1
     1  C   -0.461998
     2  H    0.190524
     3  H    0.225529
     4  C   -0.359770
     5  H    0.208144
     6  N    0.152836
     7  H    0.193522
     8  H    0.159789
     9  H    0.176505
    10  C   -0.125718
    11  H    0.256081
    12  C   -0.464199
    13  C   -0.388537
    14  H    0.232168
    15  O   -0.155307
    16  C    1.070914
    17  C   -0.386824
    18  C   -0.610766
    19  O   -0.466337
    20  C   -0.315022
    21  C   -0.632372
    22  H    0.210575
    23  H    0.353785
    24  H    0.212761
    25  C    0.531353
    26  H    0.180741
    27  O   -0.146257
    28  C   -0.344706
    29  H    0.154894
    30  H    0.157464
    31  H    0.190229
 Sum of Mulliken charges =   0.00000

 Dipole moment (field-independent basis, Debye):
    X=            -10.1692    Y=             -5.2274    Z=              0.9866  Tot=             11.4765
 Quadrupole moment (field-independent basis, Debye-Ang):
   XX=            -46.9897   YY=           -109.5109   ZZ=            -93.6533
   XY=              2.4268   XZ=              1.2708   YZ=             11.1957

 Normal termination of Gaussian 09 at Thu Jun 22 09:05:59 2017.
