 Gaussian 09, Revision D.01,
 Gaussian 09:  ES64L-G09RevD.01 24-Apr-2013

 ----------------------------------------------------------------------
 # wb97xd 6-311++g** opt td=(nstates=1,root=1) SCRF=(PCM,solvent=dichlo
 romethane)
 ----------------------------------------------------------------------

 ---------------------
 restarted optimzation
 ---------------------
 Symbolic Z-matrix:
 Charge =  0 Multiplicity = 1

 SCF Done:  E(RwB97XD) =  -632.087286020     A.U. after   19 cycles
 SCF Done:  E(RwB97XD) =  -632.089691304     A.U. after   17 cycles
 SCF Done:  E(RwB97XD) =  -632.091698854     A.U. after   16 cycles
 SCF Done:  E(RwB97XD) =  -632.097893229     A.U. after   17 cycles
 SCF Done:  E(RwB97XD) =  -632.104472505     A.U. after   17 cycles
 SCF Done:  E(RwB97XD) =  -632.118638389     A.U. after   18 cycles
 SCF Done:  E(RwB97XD) =  -632.130100357     A.U. after   19 cycles
 SCF Done:  E(RwB97XD) =  -632.127699743     A.U. after   17 cycles
 SCF Done:  E(RwB97XD) =  -632.136919859     A.U. after   17 cycles
 SCF Done:  E(RwB97XD) =  -632.139792207     A.U. after   17 cycles
 SCF Done:  E(RwB97XD) =  -632.146214631     A.U. after   12 cycles
 SCF Done:  E(RwB97XD) =  -632.146256348     A.U. after   12 cycles
 SCF Done:  E(RwB97XD) =  -632.146283596     A.U. after   11 cycles
 SCF Done:  E(RwB97XD) =  -632.146293458     A.U. after   11 cycles
 SCF Done:  E(RwB97XD) =  -632.146287433     A.U. after   11 cycles
 SCF Done:  E(RwB97XD) =  -632.146281192     A.U. after   10 cycles
 SCF Done:  E(RwB97XD) =  -632.146279980     A.U. after    9 cycles
 SCF Done:  E(RwB97XD) =  -632.146283921     A.U. after    8 cycles
 SCF Done:  E(RwB97XD) =  -632.146289801     A.U. after    9 cycles
 SCF Done:  E(RwB97XD) =  -632.146291798     A.U. after    7 cycles

 Excitation energies and oscillator strengths:

 Excited State   1:      Singlet-A      2.8458 eV  435.68 nm  f=0.7382  <S**2>=0.000
      51 -> 52        -0.69183
 This state for optimization and/or second-order correction.
 Total Energy, E(TD-HF/TD-KS) =  -632.041710774
 Copying the excited state density for this state as the 1-particle RhoCI density.

 Optimization completed.
    -- Stationary point found.

                         Standard orientation:
 ---------------------------------------------------------------------
 Center     Atomic      Atomic             Coordinates (Angstroms)
 Number     Number       Type             X           Y           Z
 ---------------------------------------------------------------------
      1          6           0       -3.670886   -1.655005    0.013256
      2          1           0       -4.714109   -1.962093    0.059770
      3          1           0       -3.224448   -2.063995   -0.900179
      4          6           0       -4.851632    0.527899   -0.041717
      5          1           0       -5.370378    0.323174   -0.984049
      6          7           0       -3.601945   -0.207291    0.021462
      7          1           0       -3.144339   -2.072188    0.877629
      8          1           0       -4.654185    1.596768    0.025718
      9          1           0       -5.503648    0.236929    0.786514
     10          6           0       -2.424213    0.429713    0.011928
     11          1           0       -2.478575    1.512157    0.008829
     12          6           0       -1.180265   -0.181131    0.008982
     13          6           0        0.016419    0.568013    0.010268
     14          1           0       -1.115058   -1.259118    0.002255
     15          8           0       -0.115584    1.908498    0.016144
     16          6           0        1.323673   -0.036126    0.003737
     17          6           0        2.529345    0.826974   -0.002404
     18          6           0        1.529214   -1.421993    0.002752
     19          8           0        2.399593    2.088858    0.000183
     20          6           0        3.812554    0.213167   -0.011220
     21          6           0        2.813196   -1.976081   -0.005503
     22          1           0        0.686060   -2.100673    0.008654
     23          1           0        0.806605    2.275458    0.011519
     24          1           0        4.671668    0.874727   -0.016246
     25          6           0        3.956184   -1.165139   -0.012711
     26          1           0        2.918788   -3.055032   -0.006160
     27          1           0        4.941630   -1.615672   -0.019324
 ---------------------------------------------------------------------

 The electronic state is 1-A.
 Alpha  occ. eigenvalues --  -19.28777 -19.20393 -14.50349 -10.39972 -10.36491
 Alpha  occ. eigenvalues --  -10.35316 -10.32952 -10.32877 -10.30230 -10.29913
 Alpha  occ. eigenvalues --  -10.29635 -10.29054 -10.28047 -10.27634  -1.18548
 Alpha  occ. eigenvalues --   -1.10640  -1.09442  -0.95251  -0.91347  -0.87105
 Alpha  occ. eigenvalues --   -0.84800  -0.82799  -0.80798  -0.74335  -0.70279
 Alpha  occ. eigenvalues --   -0.69459  -0.66655  -0.63268  -0.61381  -0.59687
 Alpha  occ. eigenvalues --   -0.58173  -0.57829  -0.56225  -0.53100  -0.52613
 Alpha  occ. eigenvalues --   -0.52371  -0.50785  -0.50614  -0.50107  -0.49448
 Alpha  occ. eigenvalues --   -0.48396  -0.47547  -0.47413  -0.45084  -0.43479
 Alpha  occ. eigenvalues --   -0.42668  -0.41411  -0.35791  -0.33184  -0.31301
 Alpha  occ. eigenvalues --   -0.26849
 Alpha virt. eigenvalues --   -0.02636   0.03781   0.04672   0.05299   0.05567
 Alpha virt. eigenvalues --    0.06097   0.06326   0.06867   0.07857   0.08133
 Alpha virt. eigenvalues --    0.08199   0.08760   0.09325   0.09861   0.10731

 Mulliken charges:
               1
     1  C   -0.475750
     2  H    0.227234
     3  H    0.206461
     4  C   -0.321269
     5  H    0.209329
     6  N    0.141942
     7  H    0.202254
     8  H    0.162978
     9  H    0.199973
    10  C    0.631586
    11  H    0.258375
    12  C   -0.476283
    13  C   -0.082991
    14  H    0.168568
    15  O   -0.324253
    16  C    1.659298
    17  C    0.026953
    18  C   -1.548648
    19  O   -0.519606
    20  C   -0.494159
    21  C   -0.657865
    22  H    0.111855
    23  H    0.407977
    24  H    0.228113
    25  C   -0.412803
    26  H    0.237634
    27  H    0.233098
 Sum of Mulliken charges =   0.00000

 Dipole moment (field-independent basis, Debye):
    X=            -11.8646    Y=             -5.4691    Z=             -0.0651  Tot=             13.0646
 Quadrupole moment (field-independent basis, Debye-Ang):
   XX=            -54.2478   YY=            -86.0063   ZZ=            -87.9293
   XY=             -8.3731   XZ=              0.2093   YZ=             -0.0709

 Normal termination of Gaussian 09 at Wed Feb  1 21:46:27 2017.
