 Gaussian 09, Revision D.01,
 Gaussian 09:  ES64L-G09RevD.01 24-Apr-2013

 ----------------------------------------------------------------------
 # wb97xd 6-311++g** opt td=(nstates=1,root=1) SCRF=(PCM,solvent=dichlo
 romethane)
 ----------------------------------------------------------------------

 -----
 title
 -----
 Symbolic Z-matrix:
 Charge =  0 Multiplicity = 1

 SCF Done:  E(RwB97XD) =  -632.115164004     A.U. after   18 cycles
 SCF Done:  E(RwB97XD) =  -632.120485826     A.U. after   17 cycles
 SCF Done:  E(RwB97XD) =  -632.122509752     A.U. after   17 cycles
 SCF Done:  E(RwB97XD) =  -632.123754829     A.U. after   15 cycles
 SCF Done:  E(RwB97XD) =  -632.123771061     A.U. after   13 cycles
 SCF Done:  E(RwB97XD) =  -632.123842999     A.U. after   13 cycles
 SCF Done:  E(RwB97XD) =  -632.123921331     A.U. after   12 cycles
 SCF Done:  E(RwB97XD) =  -632.123960494     A.U. after   12 cycles
 SCF Done:  E(RwB97XD) =  -632.123995959     A.U. after   11 cycles
 SCF Done:  E(RwB97XD) =  -632.123985774     A.U. after   12 cycles
 SCF Done:  E(RwB97XD) =  -632.123968327     A.U. after   11 cycles
 SCF Done:  E(RwB97XD) =  -632.123947862     A.U. after   10 cycles

 Excitation energies and oscillator strengths:

 Excited State   1:      Singlet-A      2.3794 eV  521.07 nm  f=0.0004  <S**2>=0.000
      48 -> 52         0.12498
      51 -> 52         0.67008
      51 -> 63        -0.10029
 This state for optimization and/or second-order correction.
 Total Energy, E(TD-HF/TD-KS) =  -632.036506590
 Copying the excited state density for this state as the 1-particle RhoCI density.

 Optimization completed.
    -- Stationary point found.

                         Standard orientation:
 ---------------------------------------------------------------------
 Center     Atomic      Atomic             Coordinates (Angstroms)
 Number     Number       Type             X           Y           Z
 ---------------------------------------------------------------------
      1          6           0        3.965482   -0.376586   -1.148113
      2          1           0        5.024721   -0.600609   -1.051433
      3          1           0        3.471336   -1.194697   -1.673808
      4          6           0        4.268181   -0.553263    1.315597
      5          1           0        4.586177   -1.593552    1.231417
      6          7           0        3.398498   -0.224291    0.191532
      7          1           0        3.847210    0.549066   -1.711326
      8          1           0        3.734855   -0.409254    2.252310
      9          1           0        5.146214    0.093519    1.290665
     10          6           0        2.157255    0.160423    0.381370
     11          1           0        1.838041    0.244870    1.414220
     12          6           0        1.225804    0.433402   -0.626349
     13          6           0       -0.111327    0.897082   -0.275977
     14          1           0        1.545437    0.433826   -1.668351
     15          8           0       -0.105418    2.200668   -0.176099
     16          6           0       -1.254824    0.051410   -0.148162
     17          6           0       -2.532716    0.607510    0.139669
     18          6           0       -1.172253   -1.348623   -0.290141
     19          8           0       -2.676633    1.952090    0.283981
     20          6           0       -3.642538   -0.206461    0.275521
     21          6           0       -2.293705   -2.160023   -0.152463
     22          1           0       -0.208441   -1.797238   -0.512698
     23          1           0       -1.786415    2.348777    0.150580
     24          1           0       -4.599891    0.254610    0.493335
     25          6           0       -3.530215   -1.593277    0.131029
     26          1           0       -2.197166   -3.233799   -0.269395
     27          1           0       -4.410020   -2.217107    0.238814
 ---------------------------------------------------------------------

 The electronic state is 1-A.
 Alpha  occ. eigenvalues --  -19.27805 -19.24694 -14.46133 -10.39339 -10.37507
 Alpha  occ. eigenvalues --  -10.32859 -10.31533 -10.31471 -10.31468 -10.31453
 Alpha  occ. eigenvalues --  -10.31282 -10.29795 -10.29698 -10.26413  -1.17395
 Alpha  occ. eigenvalues --   -1.11925  -1.06783  -0.97692  -0.89515  -0.86337
 Alpha  occ. eigenvalues --   -0.85801  -0.82971  -0.79389  -0.75452  -0.71186
 Alpha  occ. eigenvalues --   -0.68971  -0.65369  -0.62366  -0.61412  -0.59547
 Alpha  occ. eigenvalues --   -0.57609  -0.56670  -0.56372  -0.54045  -0.53300
 Alpha  occ. eigenvalues --   -0.52493  -0.50875  -0.49700  -0.49427  -0.48944
 Alpha  occ. eigenvalues --   -0.47891  -0.47178  -0.46852  -0.44230  -0.44097
 Alpha  occ. eigenvalues --   -0.43644  -0.40795  -0.35879  -0.35152  -0.31936
 Alpha  occ. eigenvalues --   -0.26318
 Alpha virt. eigenvalues --   -0.02204   0.03903   0.04678   0.05052   0.05532
 Alpha virt. eigenvalues --    0.05718   0.06103   0.06846   0.07864   0.08019
 Alpha virt. eigenvalues --    0.08128   0.08953   0.09235   0.09499   0.09630

 Mulliken charges:
               1
     1  C   -0.430930
     2  H    0.201469
     3  H    0.186694
     4  C   -0.331010
     5  H    0.177114
     6  N    0.167843
     7  H    0.186656
     8  H    0.147657
     9  H    0.185224
    10  C   -0.667852
    11  H    0.191797
    12  C   -0.253443
    13  C    0.020862
    14  H    0.244773
    15  O   -0.335139
    16  C    1.190553
    17  C   -0.119054
    18  C   -0.521033
    19  O   -0.309196
    20  C   -0.311490
    21  C   -0.625926
    22  H    0.216366
    23  H    0.336004
    24  H    0.254067
    25  C   -0.302462
    26  H    0.252416
    27  H    0.248042
 Sum of Mulliken charges =   0.00000

 Dipole moment (field-independent basis, Debye):
    X=              4.2480    Y=             -6.0845    Z=              0.5332  Tot=              7.4398
 Quadrupole moment (field-independent basis, Debye-Ang):
   XX=            -59.3998   YY=            -90.3100   ZZ=            -81.2303
   XY=              4.3790   XZ=              0.9725   YZ=              0.3076

 Normal termination of Gaussian 09 at Mon Dec 26 02:09:37 2016.
