 Gaussian 09, Revision D.01,
 Gaussian 09:  ES64L-G09RevD.01 24-Apr-2013

 ----------------------------------------------------------------------
 # wb97xd 6-311++g** opt geom=allcheck SCRF=(PCM,solvent=dichloromethan
 e)
 ----------------------------------------------------------------------

 Structure from the checkpoint file:  "1_opt_DCM.chk"
 -----------
 Geom Opt s0
 -----------
 Charge =  0 Multiplicity = 1

 SCF Done:  E(RwB97XD) =  -632.164220451     A.U. after   17 cycles
 SCF Done:  E(RwB97XD) =  -632.164220384     A.U. after   11 cycles
 SCF Done:  E(RwB97XD) =  -632.164223475     A.U. after   10 cycles
 SCF Done:  E(RwB97XD) =  -632.164222774     A.U. after   11 cycles
 SCF Done:  E(RwB97XD) =  -632.164224603     A.U. after   10 cycles
 SCF Done:  E(RwB97XD) =  -632.164224948     A.U. after   10 cycles
 SCF Done:  E(RwB97XD) =  -632.164225285     A.U. after   10 cycles
 SCF Done:  E(RwB97XD) =  -632.164225465     A.U. after    9 cycles
 Optimization completed.
    -- Stationary point found.

                         Standard orientation:
 ---------------------------------------------------------------------
 Center     Atomic      Atomic             Coordinates (Angstroms)
 Number     Number       Type             X           Y           Z
 ---------------------------------------------------------------------
      1          6           0        3.703405    1.636046   -0.000298
      2          1           0        4.753908    1.920449    0.020037
      3          1           0        3.243454    2.052491   -0.901566
      4          6           0        4.841115   -0.575940   -0.019036
      5          1           0        5.403269   -0.357902   -0.931199
      6          7           0        3.603344    0.186740    0.007220
      7          1           0        3.208002    2.061448    0.877232
      8          1           0        4.616640   -1.641231    0.009270
      9          1           0        5.459733   -0.323087    0.845874
     10          6           0        2.415657   -0.411554    0.007163
     11          1           0        2.439869   -1.496935    0.008546
     12          6           0        1.189234    0.204192    0.006386
     13          6           0        0.005503   -0.606258    0.009330
     14          1           0        1.115805    1.280332   -0.000302
     15          8           0        0.068438   -1.858630    0.014579
     16          6           0       -1.342328    0.033691    0.003854
     17          6           0       -2.499011   -0.780898   -0.003815
     18          6           0       -1.522861    1.425611    0.006420
     19          8           0       -2.432147   -2.119719   -0.005462
     20          6           0       -3.770437   -0.196690   -0.010155
     21          6           0       -2.779953    2.000301    0.000886
     22          1           0       -0.660418    2.079483    0.013424
     23          1           0       -1.464617   -2.336837    0.002625
     24          1           0       -4.635113   -0.850244   -0.016345
     25          6           0       -3.908331    1.177646   -0.007752
     26          1           0       -2.886207    3.078295    0.003467
     27          1           0       -4.900023    1.616469   -0.012434
 ---------------------------------------------------------------------

 The electronic state is 1-A.
 Alpha  occ. eigenvalues --  -19.26457 -19.22874 -14.48949 -10.37909 -10.36107
 Alpha  occ. eigenvalues --  -10.34756 -10.32428 -10.32295 -10.30169 -10.30110
 Alpha  occ. eigenvalues --  -10.29993 -10.28765 -10.28719 -10.27250  -1.17198
 Alpha  occ. eigenvalues --   -1.13110  -1.08465  -0.96585  -0.89414  -0.86817
 Alpha  occ. eigenvalues --   -0.84659  -0.84089  -0.80071  -0.74285  -0.70628
 Alpha  occ. eigenvalues --   -0.69267  -0.65064  -0.62871  -0.61109  -0.59452
 Alpha  occ. eigenvalues --   -0.57941  -0.57481  -0.56079  -0.53437  -0.52404
 Alpha  occ. eigenvalues --   -0.52245  -0.52032  -0.50362  -0.49845  -0.48237
 Alpha  occ. eigenvalues --   -0.47852  -0.47796  -0.46643  -0.46072  -0.43371
 Alpha  occ. eigenvalues --   -0.43161  -0.41446  -0.34669  -0.34497  -0.30955
 Alpha  occ. eigenvalues --   -0.29014
 Alpha virt. eigenvalues --   -0.00360   0.03869   0.04630   0.05282   0.05309
 Alpha virt. eigenvalues --    0.06133   0.06276   0.06804   0.07699   0.07914
 Alpha virt. eigenvalues --    0.08054   0.08904   0.09375   0.09925   0.10547

 Mulliken charges:
               1
     1  C   -0.457087
     2  H    0.222593
     3  H    0.197329
     4  C   -0.318697
     5  H    0.201447
     6  N    0.133994
     7  H    0.195698
     8  H    0.151076
     9  H    0.197813
    10  C    0.575960
    11  H    0.240381
    12  C   -0.463506
    13  C   -0.614148
    14  H    0.184602
    15  O   -0.407674
    16  C    1.935290
    17  C    0.452290
    18  C   -1.706186
    19  O   -0.352636
    20  C   -0.531235
    21  C   -0.614223
    22  H    0.096624
    23  H    0.377903
    24  H    0.245583
    25  C   -0.426138
    26  H    0.251393
    27  H    0.231556
 Sum of Mulliken charges =   0.00000

 Dipole moment (field-independent basis, Debye):
    X=              7.9078    Y=              5.1227    Z=             -0.0432  Tot=              9.4222
 Quadrupole moment (field-independent basis, Debye-Ang):
   XX=            -50.7058   YY=            -83.9767   ZZ=            -87.7112
   XY=             -4.8372   XZ=             -0.1081   YZ=              0.0521

 Normal termination of Gaussian 09 at Tue Oct 18 17:09:01 2016.
