 Gaussian 09, Revision D.01,
 Gaussian 09:  ES64L-G09RevD.01 24-Apr-2013

 ----------------------------------------------------------------------
 # wb97xd 6-311++g** td=(singlets,nstates=5) geom=allcheck SCRF=(PCM,so
 lvent=dichloromethane)
 ----------------------------------------------------------------------

 Structure from the checkpoint file:  "2_5states_DCM.chk"
 -----------
 Geom Opt s0
 -----------
 Charge =  0 Multiplicity = 1

                         Standard orientation:
 ---------------------------------------------------------------------
 Center     Atomic      Atomic             Coordinates (Angstroms)
 Number     Number       Type             X           Y           Z
 ---------------------------------------------------------------------
      1          6           0        3.950891   -1.807881   -0.009950
      2          1           0        4.977205   -2.170432   -0.015618
      3          1           0        3.446024   -2.196967    0.879139
      4          6           0        5.249444    0.314836    0.001211
      5          1           0        5.822975    0.030400    0.887316
      6          7           0        3.958689   -0.355066   -0.001428
      7          1           0        3.439992   -2.186312   -0.900165
      8          1           0        5.101699    1.393762    0.009581
      9          1           0        5.819834    0.043529   -0.891046
     10          6           0        2.818678    0.328604    0.002913
     11          1           0        2.921991    1.409215    0.008838
     12          6           0        1.550346   -0.196718    0.000694
     13          6           0        0.430533    0.697868    0.004306
     14          1           0        1.399325   -1.264826   -0.005351
     15          8           0        0.583866    1.943067    0.007469
     16          6           0       -0.959601    0.160574    0.003219
     17          6           0       -2.052295    1.062649   -0.003173
     18          6           0       -1.245272   -1.211644    0.008441
     19          8           0       -1.883104    2.387453   -0.007059
     20          6           0       -3.365830    0.583373   -0.005781
     21          6           0       -2.538102   -1.700176    0.006721
     22          1           0       -0.436656   -1.930260    0.014754
     23          1           0       -0.898258    2.526798   -0.001681
     24          1           0       -4.195951    1.277811   -0.010981
     25          6           0       -3.572397   -0.775142   -0.000808
     26          1           0       -2.748678   -2.761257    0.011240
     27          9           0       -4.840532   -1.229802   -0.002897
 ---------------------------------------------------------------------

 SCF Done:  E(RwB97XD) =  -731.407553346     A.U. after   17 cycles

 Excitation energies and oscillator strengths:

 Excited State   1:      Singlet-A      4.0471 eV  306.35 nm  f=0.8155  <S**2>=0.000
      55 -> 56         0.68398
 This state for optimization and/or second-order correction.
 Total Energy, E(TD-HF/TD-KS) =  -731.258825534
 Copying the excited state density for this state as the 1-particle RhoCI density.

 Excited State   2:      Singlet-A      4.4432 eV  279.04 nm  f=0.0001  <S**2>=0.000
      52 -> 56         0.68534

 Excited State   3:      Singlet-A      4.6591 eV  266.11 nm  f=0.0024  <S**2>=0.000
      53 -> 64         0.10747
      54 -> 56         0.63639
      54 -> 58        -0.12295
      55 -> 58        -0.16997

 Excited State   4:      Singlet-A      5.3915 eV  229.96 nm  f=0.0457  <S**2>=0.000
      53 -> 56         0.52226
      54 -> 56         0.17210
      54 -> 58         0.33219
      55 -> 58         0.20822

 Excited State   5:      Singlet-A      5.6897 eV  217.91 nm  f=0.0402  <S**2>=0.000
      54 -> 57        -0.10865
      55 -> 57         0.58807
      55 -> 62         0.22146
      55 -> 67        -0.20563

 The electronic state is 1-A.
 Alpha  occ. eigenvalues --  -24.83058 -19.27004 -19.23069 -14.49071 -10.38916
 Alpha  occ. eigenvalues --  -10.38149 -10.37201 -10.34891 -10.32490 -10.32364
 Alpha  occ. eigenvalues --  -10.31261 -10.30501 -10.29632 -10.29569 -10.27407
 Alpha  occ. eigenvalues --   -1.34605  -1.17857  -1.13390  -1.08582  -0.97765
 Alpha  occ. eigenvalues --   -0.89704  -0.87431  -0.86030  -0.84174  -0.80262
 Alpha  occ. eigenvalues --   -0.75084  -0.72762  -0.69923  -0.66194  -0.64620
 Alpha  occ. eigenvalues --   -0.63043  -0.61290  -0.59344  -0.57843  -0.57590
 Alpha  occ. eigenvalues --   -0.57530  -0.56084  -0.53969  -0.52733  -0.52620
 Alpha  occ. eigenvalues --   -0.51666  -0.50558  -0.50434  -0.49609  -0.48298
 Alpha  occ. eigenvalues --   -0.48109  -0.47212  -0.46796  -0.44264  -0.43369
 Alpha  occ. eigenvalues --   -0.41557  -0.35050  -0.34476  -0.31728  -0.29173
 Alpha virt. eigenvalues --   -0.00347   0.03844   0.04631   0.04828   0.05320
 Alpha virt. eigenvalues --    0.06274   0.06500   0.06790   0.07523   0.07976
 Alpha virt. eigenvalues --    0.08804   0.08873   0.09406   0.10392   0.10766

 Mulliken charges:
               1
     1  C   -0.461088
     2  H    0.224200
     3  H    0.197437
     4  C   -0.319568
     5  H    0.200080
     6  N    0.136366
     7  H    0.196682
     8  H    0.151039
     9  H    0.200379
    10  C    0.570233
    11  H    0.242847
    12  C   -0.498873
    13  C   -0.532250
    14  H    0.188079
    15  O   -0.407059
    16  C    2.092495
    17  C    0.480738
    18  C   -1.852651
    19  O   -0.343954
    20  C   -0.327088
    21  C   -0.397860
    22  H    0.106825
    23  H    0.382243
    24  H    0.271935
    25  C   -0.617378
    26  H    0.281111
    27  F   -0.164920
 Sum of Mulliken charges =   0.00000

 Dipole moment (field-independent basis, Debye):
    X=              9.5793    Y=             -4.9849    Z=             -0.0036  Tot=             10.7987
 Quadrupole moment (field-independent basis, Debye-Ang):
   XX=            -63.2352   YY=            -89.1030   ZZ=            -90.9913
   XY=             -4.2271   XZ=             -0.0476   YZ=             -0.0064

 Normal termination of Gaussian 09 at Wed Oct 19 17:29:07 2016.
