 Gaussian 09, Revision D.01,
 Gaussian 09:  ES64L-G09RevD.01 24-Apr-2013

 ----------------------------------------------------------------------
 # wb97xd 6-311++g** opt td=(nstates=1,root=1) SCRF=(PCM,solvent=dichlo
 romethane)
 ----------------------------------------------------------------------

 -----
 title
 -----
 Symbolic Z-matrix:
 Charge =  0 Multiplicity = 1

 SCF Done:  E(RwB97XD) =  -731.358938563     A.U. after   18 cycles
 SCF Done:  E(RwB97XD) =  -731.364082731     A.U. after   16 cycles
 SCF Done:  E(RwB97XD) =  -731.366172291     A.U. after   16 cycles
 SCF Done:  E(RwB97XD) =  -731.367260569     A.U. after   15 cycles
 SCF Done:  E(RwB97XD) =  -731.367220925     A.U. after   13 cycles
 SCF Done:  E(RwB97XD) =  -731.367261728     A.U. after   13 cycles
 SCF Done:  E(RwB97XD) =  -731.367360354     A.U. after   12 cycles
 SCF Done:  E(RwB97XD) =  -731.367387979     A.U. after   11 cycles
 SCF Done:  E(RwB97XD) =  -731.367445903     A.U. after   13 cycles
 SCF Done:  E(RwB97XD) =  -731.367447487     A.U. after   13 cycles
 SCF Done:  E(RwB97XD) =  -731.366924647     A.U. after   14 cycles
 SCF Done:  E(RwB97XD) =  -731.367315191     A.U. after   15 cycles
 SCF Done:  E(RwB97XD) =  -731.367194154     A.U. after   13 cycles
 SCF Done:  E(RwB97XD) =  -731.367392625     A.U. after   13 cycles
 SCF Done:  E(RwB97XD) =  -731.367309419     A.U. after   13 cycles
 SCF Done:  E(RwB97XD) =  -731.367396639     A.U. after   13 cycles
 SCF Done:  E(RwB97XD) =  -731.367499785     A.U. after   13 cycles
 SCF Done:  E(RwB97XD) =  -731.367410806     A.U. after   13 cycles
 SCF Done:  E(RwB97XD) =  -731.367406622     A.U. after   12 cycles
 SCF Done:  E(RwB97XD) =  -731.367401923     A.U. after   11 cycles

 Excitation energies and oscillator strengths:

 Excited State   1:      Singlet-A      2.3991 eV  516.79 nm  f=0.0004  <S**2>=0.000
      52 -> 56         0.12133
      55 -> 56         0.67218
 This state for optimization and/or second-order correction.
 Total Energy, E(TD-HF/TD-KS) =  -731.279235064
 Copying the excited state density for this state as the 1-particle RhoCI density.

 Optimization completed.
    -- Stationary point found.

                         Standard orientation:
 ---------------------------------------------------------------------
 Center     Atomic      Atomic             Coordinates (Angstroms)
 Number     Number       Type             X           Y           Z
 ---------------------------------------------------------------------
      1          6           0        4.264760   -0.666437   -1.120666
      2          1           0        5.240784   -1.132656   -1.014416
      3          1           0        3.620549   -1.317408   -1.712027
      4          6           0        4.514142   -0.877647    1.347983
      5          1           0        4.716459   -1.947232    1.276699
      6          7           0        3.695229   -0.467271    0.212238
      7          1           0        4.379762    0.294155   -1.623969
      8          1           0        3.992051   -0.665367    2.277954
      9          1           0        5.457747   -0.330929    1.324328
     10          6           0        2.502741    0.052716    0.385896
     11          1           0        2.174149    0.160802    1.413590
     12          6           0        1.629902    0.445745   -0.635987
     13          6           0        0.343629    1.041422   -0.298751
     14          1           0        1.975917    0.435607   -1.669618
     15          8           0        0.480196    2.335536   -0.159175
     16          6           0       -0.884612    0.318448   -0.193172
     17          6           0       -2.090409    1.008821    0.125081
     18          6           0       -0.964254   -1.074264   -0.379468
     19          8           0       -2.079577    2.349468    0.311385
     20          6           0       -3.287774    0.327628    0.251073
     21          6           0       -2.167075   -1.767197   -0.255595
     22          1           0       -0.064699   -1.627209   -0.628917
     23          1           0       -1.146731    2.645115    0.179987
     24          1           0       -4.198404    0.860966    0.494290
     25          6           0       -3.298936   -1.048359    0.058434
     26          1           0       -2.220541   -2.838639   -0.401680
     27          9           0       -4.485697   -1.701288    0.185719
 ---------------------------------------------------------------------

 The electronic state is 1-A.
 Alpha  occ. eigenvalues --  -24.83854 -19.28327 -19.24970 -14.46312 -10.40466
 Alpha  occ. eigenvalues --  -10.39695 -10.38613 -10.33053 -10.32710 -10.31793
 Alpha  occ. eigenvalues --  -10.31618 -10.31542 -10.30732 -10.30695 -10.26577
 Alpha  occ. eigenvalues --   -1.34880  -1.18131  -1.12190  -1.06940  -0.98942
 Alpha  occ. eigenvalues --   -0.90148  -0.87400  -0.86531  -0.83073  -0.79653
 Alpha  occ. eigenvalues --   -0.76165  -0.73545  -0.69522  -0.66583  -0.65286
 Alpha  occ. eigenvalues --   -0.62503  -0.60820  -0.59973  -0.58384  -0.57993
 Alpha  occ. eigenvalues --   -0.56496  -0.55767  -0.54814  -0.53104  -0.52729
 Alpha  occ. eigenvalues --   -0.51577  -0.50588  -0.49793  -0.49486  -0.48458
 Alpha  occ. eigenvalues --   -0.48048  -0.47302  -0.45275  -0.44460  -0.43682
 Alpha  occ. eigenvalues --   -0.40955  -0.36203  -0.35270  -0.32767  -0.26527
 Alpha virt. eigenvalues --   -0.02241   0.03879   0.04217   0.04893   0.05469
 Alpha virt. eigenvalues --    0.05701   0.06438   0.07044   0.07863   0.08007
 Alpha virt. eigenvalues --    0.08293   0.08966   0.09200   0.09501   0.09898

 Mulliken charges:
               1
     1  C   -0.431591
     2  H    0.201817
     3  H    0.183021
     4  C   -0.333174
     5  H    0.179594
     6  N    0.172055
     7  H    0.192918
     8  H    0.147934
     9  H    0.185127
    10  C   -0.657346
    11  H    0.194348
    12  C   -0.250781
    13  C    0.026831
    14  H    0.252084
    15  O   -0.330539
    16  C    1.161097
    17  C   -0.104569
    18  C   -0.518482
    19  O   -0.300660
    20  C   -0.159454
    21  C   -0.390888
    22  H    0.233453
    23  H    0.340426
    24  H    0.282380
    25  C   -0.389634
    26  H    0.282565
    27  F   -0.168531
 Sum of Mulliken charges =   0.00000

 Dipole moment (field-independent basis, Debye):
    X=              5.6258    Y=             -5.4454    Z=              0.2662  Tot=              7.8341
 Quadrupole moment (field-independent basis, Debye-Ang):
   XX=            -73.1563   YY=            -97.6151   ZZ=            -84.4295
   XY=             -7.7229   XZ=              2.2874   YZ=              0.9270

 Normal termination of Gaussian 09 at Mon Dec 26 10:48:45 2016.
