 Gaussian 09, Revision D.01,
 Gaussian 09:  ES64L-G09RevD.01 24-Apr-2013

 ----------------------------------------------------------------------
 # wb97xd 6-311++g** opt td=(nstates=1,root=1) SCRF=(PCM,solvent=dichlo
 romethane)
 ----------------------------------------------------------------------

 -------
 restart
 -------
 Symbolic Z-matrix:
 Charge =  0 Multiplicity = 1

 SCF Done:  E(RwB97XD) =  -731.321318277     A.U. after   19 cycles
 SCF Done:  E(RwB97XD) =  -731.328525663     A.U. after   17 cycles
 SCF Done:  E(RwB97XD) =  -731.329528511     A.U. after   16 cycles
 SCF Done:  E(RwB97XD) =  -731.331696069     A.U. after   17 cycles
 SCF Done:  E(RwB97XD) =  -731.335852121     A.U. after   17 cycles
 SCF Done:  E(RwB97XD) =  -731.339566474     A.U. after   17 cycles
 SCF Done:  E(RwB97XD) =  -731.342806252     A.U. after   16 cycles
 SCF Done:  E(RwB97XD) =  -731.352561050     A.U. after   18 cycles
 SCF Done:  E(RwB97XD) =  -731.353155161     A.U. after   15 cycles
 SCF Done:  E(RwB97XD) =  -731.360869909     A.U. after   19 cycles
 SCF Done:  E(RwB97XD) =  -731.391808548     A.U. after   14 cycles
 SCF Done:  E(RwB97XD) =  -731.391812419     A.U. after   11 cycles
 SCF Done:  E(RwB97XD) =  -731.391787811     A.U. after   11 cycles
 SCF Done:  E(RwB97XD) =  -731.391801007     A.U. after   10 cycles
 SCF Done:  E(RwB97XD) =  -731.391802765     A.U. after    9 cycles
 SCF Done:  E(RwB97XD) =  -731.391806366     A.U. after   11 cycles
 SCF Done:  E(RwB97XD) =  -731.391803368     A.U. after   11 cycles
 SCF Done:  E(RwB97XD) =  -731.391804553     A.U. after    8 cycles
 SCF Done:  E(RwB97XD) =  -731.391805693     A.U. after    8 cycles
 SCF Done:  E(RwB97XD) =  -731.391806324     A.U. after    8 cycles

 Excitation energies and oscillator strengths:

 Excited State   1:      Singlet-A      2.9670 eV  417.88 nm  f=0.8162  <S**2>=0.000
      55 -> 56         0.69188
 This state for optimization and/or second-order correction.
 Total Energy, E(TD-HF/TD-KS) =  -731.282772242
 Copying the excited state density for this state as the 1-particle RhoCI density.

 Optimization completed.
    -- Stationary point found.

                         Standard orientation:
 ---------------------------------------------------------------------
 Center     Atomic      Atomic             Coordinates (Angstroms)
 Number     Number       Type             X           Y           Z
 ---------------------------------------------------------------------
      1          6           0       -3.911553   -1.825603    0.004289
      2          1           0       -4.928408   -2.213383    0.014487
      3          1           0       -3.401806   -2.200513   -0.889796
      4          6           0       -5.260535    0.257951   -0.004277
      5          1           0       -5.820962   -0.034766   -0.897488
      6          7           0       -3.955608   -0.376875    0.002537
      7          1           0       -3.385438   -2.197023    0.890106
      8          1           0       -5.142695    1.340360   -0.000718
      9          1           0       -5.831845   -0.039494    0.880275
     10          6           0       -2.832533    0.350743    0.000057
     11          1           0       -2.968348    1.425909   -0.001567
     12          6           0       -1.544074   -0.167191   -0.000192
     13          6           0       -0.405246    0.669159   -0.000443
     14          1           0       -1.401422   -1.237601   -0.000198
     15          8           0       -0.640595    1.995861   -0.000261
     16          6           0        0.939220    0.160364   -0.000544
     17          6           0        2.079383    1.112842    0.000846
     18          6           0        1.242591   -1.211772   -0.001921
     19          8           0        1.858466    2.358174    0.002050
     20          6           0        3.404972    0.599356    0.000877
     21          6           0        2.558030   -1.677279   -0.001792
     22          1           0        0.451982   -1.949591   -0.003153
     23          1           0        0.247590    2.434144    0.000555
     24          1           0        4.232951    1.296949    0.001984
     25          6           0        3.607391   -0.761315   -0.000380
     26          1           0        2.769901   -2.739229   -0.002879
     27          9           0        4.873214   -1.235939   -0.000311
 ---------------------------------------------------------------------

 The electronic state is 1-A.
 Alpha  occ. eigenvalues --  -24.82876 -19.29020 -19.20874 -14.50490 -10.40240
 Alpha  occ. eigenvalues --  -10.38758 -10.36650 -10.36263 -10.33014 -10.32958
 Alpha  occ. eigenvalues --  -10.31430 -10.30120 -10.29215 -10.29006 -10.28274
 Alpha  occ. eigenvalues --   -1.34197  -1.18809  -1.11322  -1.09578  -0.96297
 Alpha  occ. eigenvalues --   -0.91684  -0.87580  -0.84895  -0.84200  -0.81235
 Alpha  occ. eigenvalues --   -0.75076  -0.71058  -0.70820  -0.67504  -0.64322
 Alpha  occ. eigenvalues --   -0.62973  -0.61908  -0.60752  -0.58272  -0.58113
 Alpha  occ. eigenvalues --   -0.57108  -0.54676  -0.53442  -0.52794  -0.52404
 Alpha  occ. eigenvalues --   -0.51424  -0.50864  -0.50796  -0.50001  -0.49008
 Alpha  occ. eigenvalues --   -0.47966  -0.47704  -0.46550  -0.44356  -0.42775
 Alpha  occ. eigenvalues --   -0.41696  -0.35648  -0.33850  -0.31613  -0.27513
 Alpha virt. eigenvalues --   -0.02682   0.03745   0.04842   0.05251   0.05343
 Alpha virt. eigenvalues --    0.06276   0.06484   0.06816   0.07953   0.07962
 Alpha virt. eigenvalues --    0.08690   0.08855   0.09328   0.10548   0.10886

 Mulliken charges:
               1
     1  C   -0.481953
     2  H    0.231132
     3  H    0.205660
     4  C   -0.326720
     5  H    0.206347
     6  N    0.146032
     7  H    0.204419
     8  H    0.162535
     9  H    0.205474
    10  C    0.601179
    11  H    0.262004
    12  C   -0.482202
    13  C    0.006260
    14  H    0.171622
    15  O   -0.320819
    16  C    1.789291
    17  C   -0.114352
    18  C   -1.653897
    19  O   -0.503437
    20  C   -0.114729
    21  C   -0.411590
    22  H    0.122932
    23  H    0.404633
    24  H    0.257712
    25  C   -0.670209
    26  H    0.270000
    27  F   -0.167324
 Sum of Mulliken charges =   0.00000

 Dipole moment (field-independent basis, Debye):
    X=            -13.6262    Y=             -5.6019    Z=             -0.0079  Tot=             14.7328
 Quadrupole moment (field-independent basis, Debye-Ang):
   XX=            -63.7481   YY=            -91.6385   ZZ=            -91.2207
   XY=              0.6719   XZ=              0.0120   YZ=             -0.0181

 Normal termination of Gaussian 09 at Fri Feb  3 07:02:05 2017.
