 Gaussian 09, Revision D.01,
 Gaussian 09:  ES64L-G09RevD.01 24-Apr-2013

 ----------------------------------------------------------------------
 # wb97xd 6-311++g** opt td=(nstates=1,root=1) SCRF=(PCM,solvent=dichlo
 romethane)
 ----------------------------------------------------------------------

 -----
 title
 -----
 Symbolic Z-matrix:
 Charge =  0 Multiplicity = 1

 SCF Done:  E(RwB97XD) =  -746.640222024     A.U. after   19 cycles
 SCF Done:  E(RwB97XD) =  -746.645627984     A.U. after   16 cycles
 SCF Done:  E(RwB97XD) =  -746.647917762     A.U. after   16 cycles
 SCF Done:  E(RwB97XD) =  -746.649265910     A.U. after   16 cycles
 SCF Done:  E(RwB97XD) =  -746.649170019     A.U. after   14 cycles
 SCF Done:  E(RwB97XD) =  -746.649284890     A.U. after   13 cycles
 SCF Done:  E(RwB97XD) =  -746.649414985     A.U. after   13 cycles
 SCF Done:  E(RwB97XD) =  -746.649435847     A.U. after   12 cycles
 SCF Done:  E(RwB97XD) =  -746.649435153     A.U. after   10 cycles
 SCF Done:  E(RwB97XD) =  -746.649417275     A.U. after   12 cycles
 SCF Done:  E(RwB97XD) =  -746.649400868     A.U. after   10 cycles
 SCF Done:  E(RwB97XD) =  -746.649396360     A.U. after   11 cycles

 Excitation energies and oscillator strengths:

 Excited State   1:      Singlet-A      2.5240 eV  491.21 nm  f=0.0004  <S**2>=0.000
      56 -> 60        -0.12420
      59 -> 60        -0.67159
      59 -> 76         0.13756
 This state for optimization and/or second-order correction.
 Total Energy, E(TD-HF/TD-KS) =  -746.556639764
 Copying the excited state density for this state as the 1-particle RhoCI density.

 Optimization completed.
    -- Stationary point found.

                         Standard orientation:
 ---------------------------------------------------------------------
 Center     Atomic      Atomic             Coordinates (Angstroms)
 Number     Number       Type             X           Y           Z
 ---------------------------------------------------------------------
      1          6           0        4.520285   -1.023367   -1.116553
      2          1           0        5.472901   -1.534451   -1.003443
      3          1           0        3.843167   -1.652483   -1.695538
      4          6           0        4.714151   -1.295937    1.350527
      5          1           0        4.809999   -2.378086    1.251988
      6          7           0        3.964991   -0.772819    0.213182
      7          1           0        4.681977   -0.079403   -1.637655
      8          1           0        4.196271   -1.057614    2.276658
      9          1           0        5.708328   -0.846862    1.361396
     10          6           0        2.841934   -0.113599    0.384059
     11          1           0        2.522741    0.023354    1.411189
     12          6           0        2.027638    0.391539   -0.636324
     13          6           0        0.833693    1.152588   -0.296303
     14          1           0        2.368344    0.333157   -1.670820
     15          8           0        1.149767    2.417897   -0.157166
     16          6           0       -0.483563    0.605409   -0.196797
     17          6           0       -1.587633    1.447537    0.126221
     18          6           0       -0.759242   -0.756010   -0.388234
     19          8           0       -1.394338    2.776310    0.319425
     20          6           0       -2.860407    0.933111    0.250341
     21          6           0       -2.047982   -1.283475   -0.265216
     22          1           0        0.054826   -1.428008   -0.642271
     23          1           0       -0.431633    2.943719    0.186963
     24          1           0       -3.684235    1.591928    0.499457
     25          6           0       -3.098196   -0.435169    0.057485
     26          1           0       -2.203224   -2.342049   -0.424568
     27          8           0       -4.397328   -0.829001    0.210056
     28          6           0       -4.696847   -2.195981    0.015660
     29          1           0       -4.154876   -2.829119    0.726593
     30          1           0       -5.767069   -2.301033    0.185490
     31          1           0       -4.460252   -2.514841   -1.005435
 ---------------------------------------------------------------------

 The electronic state is 1-A.
 Alpha  occ. eigenvalues --  -19.29965 -19.27591 -19.24281 -14.46112 -10.39114
 Alpha  occ. eigenvalues --  -10.37852 -10.37522 -10.33958 -10.32801 -10.32017
 Alpha  occ. eigenvalues --  -10.31525 -10.31443 -10.30827 -10.29884 -10.29250
 Alpha  occ. eigenvalues --  -10.26362  -1.19127  -1.17297  -1.11458  -1.06746
 Alpha  occ. eigenvalues --   -0.97708  -0.89687  -0.86704  -0.86024  -0.82957
 Alpha  occ. eigenvalues --   -0.82198  -0.78651  -0.74135  -0.71621  -0.68987
 Alpha  occ. eigenvalues --   -0.65448  -0.63744  -0.61880  -0.60267  -0.59313
 Alpha  occ. eigenvalues --   -0.58020  -0.57226  -0.56356  -0.55297  -0.54042
 Alpha  occ. eigenvalues --   -0.52507  -0.52277  -0.50912  -0.49829  -0.49687
 Alpha  occ. eigenvalues --   -0.49457  -0.49036  -0.47829  -0.47141  -0.46005
 Alpha  occ. eigenvalues --   -0.45583  -0.43733  -0.42980  -0.40978  -0.40600
 Alpha  occ. eigenvalues --   -0.35666  -0.32679  -0.31883  -0.26270
 Alpha virt. eigenvalues --   -0.01486   0.03837   0.04539   0.05007   0.05469
 Alpha virt. eigenvalues --    0.05662   0.05910   0.06720   0.07493   0.07664
 Alpha virt. eigenvalues --    0.07864   0.08395   0.08655   0.09272   0.09463

 Mulliken charges:
               1
     1  C   -0.429356
     2  H    0.204497
     3  H    0.182602
     4  C   -0.326300
     5  H    0.176595
     6  N    0.174752
     7  H    0.189082
     8  H    0.148070
     9  H    0.185361
    10  C   -0.669384
    11  H    0.192872
    12  C   -0.279779
    13  C    0.086846
    14  H    0.244558
    15  O   -0.344089
    16  C    1.232771
    17  C   -0.092911
    18  C   -0.537733
    19  O   -0.308615
    20  C   -0.402034
    21  C   -0.195940
    22  H    0.229310
    23  H    0.335136
    24  H    0.269592
    25  C   -0.584095
    26  H    0.270998
    27  O   -0.148438
    28  C   -0.404333
    29  H    0.184046
    30  H    0.229992
    31  H    0.185925
 Sum of Mulliken charges =   0.00000

 Dipole moment (field-independent basis, Debye):
    X=              2.4563    Y=             -8.9988    Z=              0.0937  Tot=              9.3284
 Quadrupole moment (field-independent basis, Debye-Ang):
   XX=            -67.3344   YY=           -100.9009   ZZ=            -92.6314
   XY=              1.1299   XZ=              3.3366   YZ=              0.3455

 Normal termination of Gaussian 09 at Mon Dec 26 05:36:26 2016.
