 Gaussian 09, Revision D.01,
 Gaussian 09:  ES64L-G09RevD.01 24-Apr-2013

 ----------------------------------------------------------------------
 # wb97xd 6-311++g** opt geom=allcheck SCRF=(PCM,solvent=dichloromethan
 e)
 ----------------------------------------------------------------------

 Structure from the checkpoint file:  "3_opt_DCM.chk"
 -----------
 Geom Opt s0
 -----------
 Charge =  0 Multiplicity = 1

 SCF Done:  E(RwB97XD) =  -746.687797449     A.U. after   17 cycles
 SCF Done:  E(RwB97XD) =  -746.688210705     A.U. after   15 cycles
 SCF Done:  E(RwB97XD) =  -746.688137826     A.U. after   14 cycles
 SCF Done:  E(RwB97XD) =  -746.688352121     A.U. after   10 cycles
 SCF Done:  E(RwB97XD) =  -746.688394110     A.U. after   14 cycles
 SCF Done:  E(RwB97XD) =  -746.688401126     A.U. after   13 cycles
 SCF Done:  E(RwB97XD) =  -746.688417527     A.U. after   12 cycles
 SCF Done:  E(RwB97XD) =  -746.688434685     A.U. after   12 cycles
 SCF Done:  E(RwB97XD) =  -746.688459334     A.U. after   12 cycles
 SCF Done:  E(RwB97XD) =  -746.688465917     A.U. after   11 cycles
 SCF Done:  E(RwB97XD) =  -746.688482209     A.U. after   14 cycles
 SCF Done:  E(RwB97XD) =  -746.688481840     A.U. after   13 cycles
 SCF Done:  E(RwB97XD) =  -746.688482620     A.U. after   10 cycles
 SCF Done:  E(RwB97XD) =  -746.688484001     A.U. after   12 cycles
 SCF Done:  E(RwB97XD) =  -746.688487237     A.U. after   15 cycles
 SCF Done:  E(RwB97XD) =  -746.688487772     A.U. after   14 cycles
 SCF Done:  E(RwB97XD) =  -746.688488242     A.U. after   11 cycles
 SCF Done:  E(RwB97XD) =  -746.688488987     A.U. after   12 cycles
 SCF Done:  E(RwB97XD) =  -746.688489198     A.U. after   11 cycles
 SCF Done:  E(RwB97XD) =  -746.688489108     A.U. after   10 cycles
 Optimization completed.
    -- Stationary point found.

                         Standard orientation:
 ---------------------------------------------------------------------
 Center     Atomic      Atomic             Coordinates (Angstroms)
 Number     Number       Type             X           Y           Z
 ---------------------------------------------------------------------
      1          6           0       -4.130912   -2.052019    0.121814
      2          1           0       -5.113524   -2.513021    0.205667
      3          1           0       -3.627678   -2.454736   -0.762918
      4          6           0       -5.637176   -0.082158   -0.081085
      5          1           0       -6.138898   -0.481349   -0.966751
      6          7           0       -4.286952   -0.612042    0.018110
      7          1           0       -3.545948   -2.312358    1.008668
      8          1           0       -5.599072    1.003473   -0.159503
      9          1           0       -6.217675   -0.352153    0.805080
     10          6           0       -3.220559    0.183987   -0.023661
     11          1           0       -3.433007    1.245774   -0.100503
     12          6           0       -1.906619   -0.205080    0.019827
     13          6           0       -0.881442    0.800930   -0.016692
     14          1           0       -1.646439   -1.250233    0.084426
     15          8           0       -1.167120    2.023011   -0.045546
     16          6           0        0.550712    0.410228   -0.014180
     17          6           0        1.554658    1.413363    0.030480
     18          6           0        0.981043   -0.920436   -0.056621
     19          8           0        1.248189    2.717270    0.061780
     20          6           0        2.900972    1.067454    0.044021
     21          6           0        2.317044   -1.278049   -0.050679
     22          1           0        0.251496   -1.718515   -0.103600
     23          1           0        0.256830    2.755458    0.021906
     24          1           0        3.652385    1.846426    0.081070
     25          6           0        3.286005   -0.267442    0.004066
     26          1           0        2.588831   -2.323466   -0.089272
     27          8           0        4.616268   -0.495820    0.017900
     28          6           0        5.078102   -1.837409   -0.028282
     29          1           0        4.758176   -2.333841   -0.949024
     30          1           0        6.164198   -1.777701   -0.008263
     31          1           0        4.729319   -2.405366    0.839140
 ---------------------------------------------------------------------

 The electronic state is 1-A.
 Alpha  occ. eigenvalues --  -19.29061 -19.26367 -19.22636 -14.48734 -10.37714
 Alpha  occ. eigenvalues --  -10.36438 -10.36239 -10.34561 -10.33667 -10.32348
 Alpha  occ. eigenvalues --  -10.32219 -10.30568 -10.29544 -10.28803 -10.28164
 Alpha  occ. eigenvalues --  -10.27116  -1.18656  -1.17106  -1.12885  -1.08281
 Alpha  occ. eigenvalues --   -0.96542  -0.89362  -0.87415  -0.85007  -0.83997
 Alpha  occ. eigenvalues --   -0.81787  -0.79182  -0.72952  -0.71073  -0.69340
 Alpha  occ. eigenvalues --   -0.65070  -0.63363  -0.62346  -0.60604  -0.58689
 Alpha  occ. eigenvalues --   -0.57375  -0.57364  -0.56795  -0.55682  -0.53330
 Alpha  occ. eigenvalues --   -0.52262  -0.52204  -0.51250  -0.50279  -0.49964
 Alpha  occ. eigenvalues --   -0.48953  -0.48424  -0.48116  -0.47871  -0.46462
 Alpha  occ. eigenvalues --   -0.45501  -0.44747  -0.42039  -0.41337  -0.40444
 Alpha  occ. eigenvalues --   -0.34605  -0.31863  -0.31095  -0.28622
 Alpha virt. eigenvalues --    0.00172   0.03827   0.04497   0.05272   0.05301
 Alpha virt. eigenvalues --    0.05914   0.06222   0.06904   0.07400   0.07732
 Alpha virt. eigenvalues --    0.07919   0.08568   0.08888   0.09448   0.09598

 Mulliken charges:
               1
     1  C   -0.463038
     2  H    0.223561
     3  H    0.201047
     4  C   -0.324196
     5  H    0.197844
     6  N    0.128127
     7  H    0.191108
     8  H    0.155088
     9  H    0.197848
    10  C    0.448846
    11  H    0.238662
    12  C   -0.384553
    13  C   -0.728107
    14  H    0.161934
    15  O   -0.405240
    16  C    2.248097
    17  C    0.632603
    18  C   -1.609109
    19  O   -0.363317
    20  C   -0.572476
    21  C   -0.450512
    22  H    0.106378
    23  H    0.381304
    24  H    0.255682
    25  C   -0.766692
    26  H    0.282577
    27  O   -0.161105
    28  C   -0.405054
    29  H    0.179844
    30  H    0.226222
    31  H    0.176626
 Sum of Mulliken charges =   0.00000

 Dipole moment (field-independent basis, Debye):
    X=             -6.2085    Y=             -8.4190    Z=             -0.1103  Tot=             10.4612
 Quadrupole moment (field-independent basis, Debye-Ang):
   XX=            -50.4147   YY=            -95.1993   ZZ=            -98.9908
   XY=             -4.9135   XZ=             -0.2829   YZ=             -0.1998

 Normal termination of Gaussian 09 at Wed Oct 19 06:57:07 2016.
