 Gaussian 09, Revision D.01,
 Gaussian 09:  ES64L-G09RevD.01 24-Apr-2013

 ----------------------------------------------------------------------
 # wb97xd 6-311++g** opt td=(nstates=1,root=1) SCRF=(PCM,solvent=dichlo
 romethane)
 ----------------------------------------------------------------------

 ---------------------
 restarted optimzation
 ---------------------
 Symbolic Z-matrix:
 Charge =  0 Multiplicity = 1

 SCF Done:  E(RwB97XD) =  -746.593439263     A.U. after   20 cycles
 SCF Done:  E(RwB97XD) =  -746.604870585     A.U. after   17 cycles
 SCF Done:  E(RwB97XD) =  -746.606496622     A.U. after   17 cycles
 SCF Done:  E(RwB97XD) =  -746.608833526     A.U. after   17 cycles
 SCF Done:  E(RwB97XD) =  -746.613124865     A.U. after   17 cycles
 SCF Done:  E(RwB97XD) =  -746.617205139     A.U. after   16 cycles
 SCF Done:  E(RwB97XD) =  -746.620827547     A.U. after   16 cycles
 SCF Done:  E(RwB97XD) =  -746.625380883     A.U. after   16 cycles
 SCF Done:  E(RwB97XD) =  -746.627447080     A.U. after   16 cycles
 SCF Done:  E(RwB97XD) =  -746.628936013     A.U. after   19 cycles
 SCF Done:  E(RwB97XD) =  -746.670998565     A.U. after   15 cycles
 SCF Done:  E(RwB97XD) =  -746.671010203     A.U. after   12 cycles
 SCF Done:  E(RwB97XD) =  -746.670982211     A.U. after   13 cycles
 SCF Done:  E(RwB97XD) =  -746.670977640     A.U. after   12 cycles
 SCF Done:  E(RwB97XD) =  -746.670953973     A.U. after   11 cycles
 SCF Done:  E(RwB97XD) =  -746.670944459     A.U. after   12 cycles
 SCF Done:  E(RwB97XD) =  -746.670955387     A.U. after   11 cycles
 SCF Done:  E(RwB97XD) =  -746.670972964     A.U. after   12 cycles
 SCF Done:  E(RwB97XD) =  -746.670985449     A.U. after   11 cycles
 SCF Done:  E(RwB97XD) =  -746.670997569     A.U. after   11 cycles

 Excitation energies and oscillator strengths:

 Excited State   1:      Singlet-A      2.9547 eV  419.62 nm  f=0.8172  <S**2>=0.000
      59 -> 60        -0.69052
 This state for optimization and/or second-order correction.
 Total Energy, E(TD-HF/TD-KS) =  -746.562413956
 Copying the excited state density for this state as the 1-particle RhoCI density.

 Optimization completed.
    -- Stationary point found.

                         Standard orientation:
 ---------------------------------------------------------------------
 Center     Atomic      Atomic             Coordinates (Angstroms)
 Number     Number       Type             X           Y           Z
 ---------------------------------------------------------------------
      1          6           0        4.085340   -2.067999    0.092852
      2          1           0        5.055070   -2.561510    0.116488
      3          1           0        3.533124   -2.334459    1.000982
      4          6           0        5.648071   -0.141583    0.000637
      5          1           0        6.162771   -0.417616    0.926488
      6          7           0        4.283757   -0.635036    0.012228
      7          1           0        3.526799   -2.432821   -0.775958
      8          1           0        5.646369    0.943542   -0.090930
      9          1           0        6.197590   -0.565897   -0.844909
     10          6           0        3.241827    0.206644   -0.028901
     11          1           0        3.490190    1.260147   -0.081832
     12          6           0        1.906892   -0.171834   -0.011410
     13          6           0        0.859937    0.774962   -0.040478
     14          1           0        1.654115   -1.220863    0.038725
     15          8           0        1.224103    2.073088   -0.068103
     16          6           0       -0.530979    0.406008   -0.037476
     17          6           0       -1.571841    1.463249    0.030856
     18          6           0       -0.978603   -0.918845   -0.092897
     19          8           0       -1.220711    2.682230    0.065885
     20          6           0       -2.933214    1.084741    0.054600
     21          6           0       -2.337879   -1.252472   -0.064031
     22          1           0       -0.269961   -1.733461   -0.164644
     23          1           0        0.380070    2.593215   -0.028748
     24          1           0       -3.680568    1.867128    0.109740
     25          6           0       -3.318329   -0.250595    0.012730
     26          1           0       -2.611356   -2.298548   -0.104747
     27          8           0       -4.652067   -0.492918    0.047064
     28          6           0       -5.099884   -1.836818   -0.001163
     29          1           0       -4.730022   -2.409719    0.855111
     30          1           0       -6.186306   -1.790902    0.039509
     31          1           0       -4.792813   -2.324933   -0.931548
 ---------------------------------------------------------------------

 The electronic state is 1-A.
 Alpha  occ. eigenvalues --  -19.28928 -19.28580 -19.19996 -14.50206 -10.39834
 Alpha  occ. eigenvalues --  -10.36393 -10.36224 -10.35189 -10.33501 -10.32899
 Alpha  occ. eigenvalues --  -10.32834 -10.30839 -10.29366 -10.28944 -10.28402
 Alpha  occ. eigenvalues --  -10.26714  -1.18325  -1.18267  -1.10317  -1.09321
 Alpha  occ. eigenvalues --   -0.95295  -0.91265  -0.87495  -0.84744  -0.83855
 Alpha  occ. eigenvalues --   -0.81243  -0.79769  -0.73607  -0.70268  -0.69120
 Alpha  occ. eigenvalues --   -0.66678  -0.63377  -0.61868  -0.61305  -0.60189
 Alpha  occ. eigenvalues --   -0.58098  -0.57545  -0.56499  -0.54344  -0.52940
 Alpha  occ. eigenvalues --   -0.52454  -0.52023  -0.50991  -0.50738  -0.50292
 Alpha  occ. eigenvalues --   -0.49771  -0.48822  -0.47892  -0.47718  -0.46683
 Alpha  occ. eigenvalues --   -0.45030  -0.44009  -0.42434  -0.41880  -0.39955
 Alpha  occ. eigenvalues --   -0.33679  -0.33073  -0.30134  -0.26985
 Alpha virt. eigenvalues --   -0.02247   0.03743   0.04505   0.05274   0.05722
 Alpha virt. eigenvalues --    0.05921   0.06230   0.06827   0.07357   0.07945
 Alpha virt. eigenvalues --    0.07980   0.08734   0.09015   0.09421   0.09574

 Mulliken charges:
               1
     1  C   -0.471939
     2  H    0.234182
     3  H    0.202005
     4  C   -0.328086
     5  H    0.207267
     6  N    0.143462
     7  H    0.204413
     8  H    0.161522
     9  H    0.202056
    10  C    0.522026
    11  H    0.260779
    12  C   -0.217456
    13  C   -0.321170
    14  H    0.150974
    15  O   -0.313953
    16  C    1.902376
    17  C    0.177312
    18  C   -1.358738
    19  O   -0.525602
    20  C   -0.578032
    21  C   -0.469039
    22  H    0.126322
    23  H    0.402744
    24  H    0.238906
    25  C   -0.831172
    26  H    0.267502
    27  O   -0.160110
    28  C   -0.409729
    29  H    0.176371
    30  H    0.224712
    31  H    0.180096
 Sum of Mulliken charges =   0.00000

 Dipole moment (field-independent basis, Debye):
    X=             10.3425    Y=             -9.6603    Z=             -0.1422  Tot=             14.1530
 Quadrupole moment (field-independent basis, Debye-Ang):
   XX=            -47.1707   YY=            -99.0831   ZZ=            -99.2469
   XY=              8.7604   XZ=              0.8061   YZ=             -0.4318

 Normal termination of Gaussian 09 at Wed Feb  1 19:32:01 2017.
