 Gaussian 09, Revision D.01,
 Gaussian 09:  ES64L-G09RevD.01 24-Apr-2013

 ----------------------------------------------------------------------
 # wb97xd 6-311++g** td=(singlets,nstates=5) geom=allcheck SCRF=(PCM,so
 lvent=dichloromethane)
 ----------------------------------------------------------------------

 Structure from the checkpoint file:  "4_5states_DCM.chk"
 -----------
 Geom Opt s0
 -----------
 Charge =  0 Multiplicity = 1

                         Standard orientation:
 ---------------------------------------------------------------------
 Center     Atomic      Atomic             Coordinates (Angstroms)
 Number     Number       Type             X           Y           Z
 ---------------------------------------------------------------------
      1          6           0        3.773719    1.787609    0.045851
      2          1           0        4.784960    2.175226    0.166776
      3          1           0        3.358265    2.175232   -0.891857
      4          6           0        5.098802   -0.308568   -0.107589
      5          1           0        5.540141   -0.087877   -1.085920
      6          7           0        3.810661    0.339577    0.047381
      7          1           0        3.161462    2.153470    0.875239
      8          1           0        4.976176   -1.387713   -0.018945
      9          1           0        5.790340    0.025501    0.670933
     10          6           0        2.670035   -0.365595    0.023640
     11          1           0        2.786257   -1.445292    0.006550
     12          6           0        1.400765    0.128780    0.027116
     13          6           0        0.300886   -0.813100    0.025851
     14          1           0        1.216398    1.191821    0.020463
     15          8           0        0.508246   -2.039063    0.035662
     16          6           0       -1.105305   -0.323402    0.008585
     17          6           0       -2.164024   -1.259780   -0.002739
     18          6           0       -1.424372    1.044371    0.003737
     19          8           0       -1.965943   -2.580069    0.001852
     20          6           0       -3.491043   -0.810078   -0.019485
     21          6           0       -2.734633    1.448929   -0.012336
     22          1           0       -0.656281    1.805255    0.012726
     23          1           0       -0.988897   -2.712904    0.016592
     24          1           0       -4.279349   -1.552508   -0.028020
     25          6           0       -3.781885    0.537968   -0.024330
     26          9           0       -3.017264    2.770962   -0.016540
     27          1           0       -4.804802    0.894335   -0.037268
 ---------------------------------------------------------------------

 SCF Done:  E(RwB97XD) =  -731.403739776     A.U. after   16 cycles

 Excitation energies and oscillator strengths:

 Excited State   1:      Singlet-A      3.9420 eV  314.52 nm  f=0.7400  <S**2>=0.000
      54 -> 56        -0.14458
      55 -> 56         0.66959
 This state for optimization and/or second-order correction.
 Total Energy, E(TD-HF/TD-KS) =  -731.258874553
 Copying the excited state density for this state as the 1-particle RhoCI density.

 Excited State   2:      Singlet-A      4.3380 eV  285.81 nm  f=0.0002  <S**2>=0.000
      53 -> 56         0.64964
      54 -> 56         0.20130

 Excited State   3:      Singlet-A      4.3849 eV  282.75 nm  f=0.0334  <S**2>=0.000
      53 -> 56        -0.20631
      54 -> 56         0.61899
      55 -> 56         0.14783
      55 -> 58        -0.13512

 Excited State   4:      Singlet-A      5.4189 eV  228.80 nm  f=0.0344  <S**2>=0.000
      52 -> 56         0.50805
      54 -> 56         0.12921
      54 -> 58        -0.34062
      54 -> 59         0.12083
      55 -> 58         0.20222

 Excited State   5:      Singlet-A      5.6992 eV  217.55 nm  f=0.0468  <S**2>=0.000
      54 -> 57         0.16349
      55 -> 57         0.56934
      55 -> 58        -0.11063
      55 -> 61         0.17837
      55 -> 66        -0.12713
      55 -> 67         0.18576

 The electronic state is 1-A.
 Alpha  occ. eigenvalues --  -24.82443 -19.27041 -19.23370 -14.48733 -10.38382
 Alpha  occ. eigenvalues --  -10.37525 -10.36623 -10.34674 -10.32329 -10.32187
 Alpha  occ. eigenvalues --  -10.31172 -10.30966 -10.30960 -10.29916 -10.27484
 Alpha  occ. eigenvalues --   -1.33858  -1.17962  -1.14073  -1.08182  -0.97857
 Alpha  occ. eigenvalues --   -0.89819  -0.87790  -0.85396  -0.83990  -0.80059
 Alpha  occ. eigenvalues --   -0.75998  -0.72034  -0.70030  -0.65384  -0.64664
 Alpha  occ. eigenvalues --   -0.63134  -0.60896  -0.60601  -0.57915  -0.57330
 Alpha  occ. eigenvalues --   -0.56993  -0.55122  -0.53648  -0.52866  -0.52744
 Alpha  occ. eigenvalues --   -0.52089  -0.50773  -0.50160  -0.49595  -0.48417
 Alpha  occ. eigenvalues --   -0.48094  -0.47087  -0.46388  -0.44672  -0.43187
 Alpha  occ. eigenvalues --   -0.41356  -0.35475  -0.35165  -0.30930  -0.29190
 Alpha virt. eigenvalues --   -0.00897   0.03939   0.04756   0.04829   0.05353
 Alpha virt. eigenvalues --    0.06127   0.06594   0.06772   0.07945   0.07997
 Alpha virt. eigenvalues --    0.08440   0.08943   0.09308   0.10273   0.11235

 Mulliken charges:
               1
     1  C   -0.454612
     2  H    0.215101
     3  H    0.200754
     4  C   -0.328652
     5  H    0.202226
     6  N    0.122536
     7  H    0.190253
     8  H    0.151224
     9  H    0.187410
    10  C    0.425886
    11  H    0.239441
    12  C   -0.423592
    13  C   -0.420766
    14  H    0.149127
    15  O   -0.387470
    16  C    1.818420
    17  C    0.129185
    18  C   -1.691335
    19  O   -0.338985
    20  C   -0.462554
    21  C   -0.558144
    22  H    0.207912
    23  H    0.369803
    24  H    0.257451
    25  C    0.098533
    26  F   -0.174576
    27  H    0.275424
 Sum of Mulliken charges =   0.00000

 Dipole moment (field-independent basis, Debye):
    X=              7.3086    Y=              3.5078    Z=             -0.1756  Tot=              8.1087
 Quadrupole moment (field-independent basis, Debye-Ang):
   XX=            -52.7007   YY=            -97.7877   ZZ=            -90.9359
   XY=              5.3682   XZ=             -0.5709   YZ=              0.3077

 Normal termination of Gaussian 09 at Fri Oct 21 16:41:11 2016.
