 Gaussian 09, Revision D.01,
 Gaussian 09:  ES64L-G09RevD.01 24-Apr-2013

 ----------------------------------------------------------------------
 # wb97xd 6-311++g** opt=restart geom=allcheck SCRF=(PCM,solvent=dichlo
 romethane)
 ----------------------------------------------------------------------

 SCF Done:  E(RwB97XD) =  -731.392711364     A.U. after    9 cycles
 SCF Done:  E(RwB97XD) =  -731.392711759     A.U. after    9 cycles
 Optimization completed.
    -- Stationary point found.

                         Standard orientation:
 ---------------------------------------------------------------------
 Center     Atomic      Atomic             Coordinates (Angstroms)
 Number     Number       Type             X           Y           Z
 ---------------------------------------------------------------------
      1          6           0        3.773719    1.787609    0.045851
      2          1           0        4.784960    2.175226    0.166776
      3          1           0        3.358265    2.175232   -0.891857
      4          6           0        5.098802   -0.308568   -0.107589
      5          1           0        5.540141   -0.087877   -1.085920
      6          7           0        3.810661    0.339577    0.047381
      7          1           0        3.161462    2.153470    0.875239
      8          1           0        4.976176   -1.387713   -0.018945
      9          1           0        5.790340    0.025501    0.670933
     10          6           0        2.670035   -0.365595    0.023640
     11          1           0        2.786257   -1.445292    0.006550
     12          6           0        1.400765    0.128780    0.027116
     13          6           0        0.300886   -0.813100    0.025851
     14          1           0        1.216398    1.191821    0.020463
     15          8           0        0.508246   -2.039063    0.035662
     16          6           0       -1.105305   -0.323402    0.008585
     17          6           0       -2.164024   -1.259780   -0.002739
     18          6           0       -1.424372    1.044371    0.003737
     19          8           0       -1.965943   -2.580069    0.001852
     20          6           0       -3.491043   -0.810078   -0.019485
     21          6           0       -2.734633    1.448929   -0.012336
     22          1           0       -0.656281    1.805255    0.012726
     23          1           0       -0.988897   -2.712904    0.016592
     24          1           0       -4.279349   -1.552508   -0.028020
     25          6           0       -3.781885    0.537968   -0.024330
     26          9           0       -3.017264    2.770962   -0.016540
     27          1           0       -4.804802    0.894335   -0.037268
 ---------------------------------------------------------------------

 The electronic state is 1-A.
 Alpha  occ. eigenvalues --  -24.81218 -19.25561 -19.22704 -14.49457 -10.37852
 Alpha  occ. eigenvalues --  -10.36621 -10.35635 -10.35005 -10.34225 -10.33938
 Alpha  occ. eigenvalues --  -10.30310 -10.30247 -10.30232 -10.29081 -10.27764
 Alpha  occ. eigenvalues --   -1.32638  -1.16641  -1.13167  -1.09189  -0.96982
 Alpha  occ. eigenvalues --   -0.89921  -0.87436  -0.85592  -0.84446  -0.80659
 Alpha  occ. eigenvalues --   -0.75401  -0.71360  -0.69762  -0.65792  -0.64108
 Alpha  occ. eigenvalues --   -0.62918  -0.60697  -0.59902  -0.58816  -0.58377
 Alpha  occ. eigenvalues --   -0.55804  -0.54844  -0.53070  -0.52506  -0.52037
 Alpha  occ. eigenvalues --   -0.51733  -0.51645  -0.50664  -0.49834  -0.49757
 Alpha  occ. eigenvalues --   -0.47503  -0.47241  -0.45465  -0.43770  -0.42073
 Alpha  occ. eigenvalues --   -0.42003  -0.34622  -0.34348  -0.30347  -0.29004
 Alpha virt. eigenvalues --   -0.00386   0.02611   0.04317   0.05142   0.05199
 Alpha virt. eigenvalues --    0.05691   0.05911   0.06871   0.07666   0.08019
 Alpha virt. eigenvalues --    0.08227   0.08449   0.08476   0.10249   0.11122

 Mulliken charges:
               1
     1  C   -0.436277
     2  H    0.193828
     3  H    0.193325
     4  C   -0.309915
     5  H    0.190191
     6  N    0.123440
     7  H    0.185408
     8  H    0.141724
     9  H    0.174103
    10  C    0.494128
    11  H    0.231922
    12  C   -0.367245
    13  C   -0.497234
    14  H    0.099744
    15  O   -0.331025
    16  C    1.844611
    17  C    0.096974
    18  C   -1.703201
    19  O   -0.299849
    20  C   -0.415632
    21  C   -0.594828
    22  H    0.172007
    23  H    0.362175
    24  H    0.239304
    25  C    0.127936
    26  F   -0.162905
    27  H    0.247293
 Sum of Mulliken charges =   0.00000

 Dipole moment (field-independent basis, Debye):
    X=              6.0169    Y=              2.5150    Z=             -0.1342  Tot=              6.5228
 Quadrupole moment (field-independent basis, Debye-Ang):
   XX=            -59.0231   YY=            -96.6223   ZZ=            -90.9145
   XY=              4.7950   XZ=             -0.4467   YZ=              0.2852

 Normal termination of Gaussian 09 at Wed Oct 19 17:36:28 2016.
