 Gaussian 09, Revision D.01,
 Gaussian 09:  ES64L-G09RevD.01 24-Apr-2013

 ----------------------------------------------------------------------
 # wb97xd 6-311++g** opt td=(nstates=1,root=1) SCRF=(PCM,solvent=dichlo
 romethane)
 ----------------------------------------------------------------------

 -----
 title
 -----
 Symbolic Z-matrix:
 Charge =  0 Multiplicity = 1

 SCF Done:  E(RwB97XD) =  -731.361467202     A.U. after   18 cycles
 SCF Done:  E(RwB97XD) =  -731.363554890     A.U. after   15 cycles
 SCF Done:  E(RwB97XD) =  -731.363408649     A.U. after   13 cycles
 SCF Done:  E(RwB97XD) =  -731.363339072     A.U. after   14 cycles
 SCF Done:  E(RwB97XD) =  -731.363416165     A.U. after   12 cycles
 SCF Done:  E(RwB97XD) =  -731.363427699     A.U. after   13 cycles
 SCF Done:  E(RwB97XD) =  -731.363462521     A.U. after   10 cycles
 SCF Done:  E(RwB97XD) =  -731.363527012     A.U. after   13 cycles
 SCF Done:  E(RwB97XD) =  -731.363588248     A.U. after   12 cycles
 SCF Done:  E(RwB97XD) =  -731.363414777     A.U. after   14 cycles
 SCF Done:  E(RwB97XD) =  -731.363519066     A.U. after   14 cycles
 SCF Done:  E(RwB97XD) =  -731.363502630     A.U. after   12 cycles
 SCF Done:  E(RwB97XD) =  -731.363713083     A.U. after   15 cycles
 SCF Done:  E(RwB97XD) =  -731.363505349     A.U. after   15 cycles
 SCF Done:  E(RwB97XD) =  -731.363490811     A.U. after   12 cycles
 SCF Done:  E(RwB97XD) =  -731.363471297     A.U. after   12 cycles
 SCF Done:  E(RwB97XD) =  -731.363466179     A.U. after   12 cycles
 SCF Done:  E(RwB97XD) =  -731.363470666     A.U. after    9 cycles
 SCF Done:  E(RwB97XD) =  -731.363469583     A.U. after   11 cycles
 SCF Done:  E(RwB97XD) =  -731.363472912     A.U. after   10 cycles

 Excitation energies and oscillator strengths:

 Excited State   1:      Singlet-A      2.2757 eV  544.83 nm  f=0.0005  <S**2>=0.000
      52 -> 56        -0.11384
      55 -> 56         0.67094
 This state for optimization and/or second-order correction.
 Total Energy, E(TD-HF/TD-KS) =  -731.279844094
 Copying the excited state density for this state as the 1-particle RhoCI density.

 Optimization completed.
    -- Stationary point found.

                         Standard orientation:
 ---------------------------------------------------------------------
 Center     Atomic      Atomic             Coordinates (Angstroms)
 Number     Number       Type             X           Y           Z
 ---------------------------------------------------------------------
      1          6           0       -4.075097    0.581057   -1.117372
      2          1           0       -5.054936    1.036537   -1.000975
      3          1           0       -3.426274    1.264487   -1.665434
      4          6           0       -4.356766    0.665689    1.356163
      5          1           0       -4.563883    1.736506    1.336035
      6          7           0       -3.522373    0.316357    0.211307
      7          1           0       -4.178000   -0.353382   -1.670039
      8          1           0       -3.843968    0.410081    2.280365
      9          1           0       -5.297096    0.116445    1.294433
     10          6           0       -2.329638   -0.206128    0.373897
     11          1           0       -2.014298   -0.365270    1.399068
     12          6           0       -1.441328   -0.538194   -0.655571
     13          6           0       -0.153041   -1.142409   -0.332555
     14          1           0       -1.769920   -0.476780   -1.692117
     15          8           0       -0.278975   -2.438091   -0.265180
     16          6           0        1.057039   -0.410590   -0.153603
     17          6           0        2.273890   -1.089572    0.146391
     18          6           0        1.098256    0.996330   -0.253376
     19          8           0        2.292181   -2.445953    0.250964
     20          6           0        3.445571   -0.384564    0.335056
     21          6           0        2.292995    1.660351   -0.057797
     22          1           0        0.203982    1.563882   -0.484094
     23          1           0        1.373355   -2.755902    0.088382
     24          1           0        4.353048   -0.932160    0.562679
     25          6           0        3.473553    1.013053    0.235628
     26          1           0        4.389359    1.570677    0.381453
     27          9           0        2.296333    3.019177   -0.161816
 ---------------------------------------------------------------------

 The electronic state is 1-A.
 Alpha  occ. eigenvalues --  -24.82736 -19.28100 -19.25160 -14.46296 -10.39742
 Alpha  occ. eigenvalues --  -10.38513 -10.37981 -10.33053 -10.32460 -10.32352
 Alpha  occ. eigenvalues --  -10.32284 -10.31598 -10.31523 -10.30947 -10.26563
 Alpha  occ. eigenvalues --   -1.33842  -1.17733  -1.12484  -1.06935  -0.98913
 Alpha  occ. eigenvalues --   -0.90486  -0.86867  -0.86382  -0.83063  -0.80033
 Alpha  occ. eigenvalues --   -0.76954  -0.72446  -0.69645  -0.66042  -0.64777
 Alpha  occ. eigenvalues --   -0.62549  -0.61371  -0.60129  -0.58028  -0.57182
 Alpha  occ. eigenvalues --   -0.56490  -0.55141  -0.54679  -0.53542  -0.52605
 Alpha  occ. eigenvalues --   -0.51518  -0.50908  -0.49781  -0.49498  -0.48085
 Alpha  occ. eigenvalues --   -0.47497  -0.47306  -0.45715  -0.44271  -0.43653
 Alpha  occ. eigenvalues --   -0.40969  -0.36278  -0.36063  -0.31907  -0.26530
 Alpha virt. eigenvalues --   -0.02955   0.04007   0.04758   0.04791   0.05628
 Alpha virt. eigenvalues --    0.05873   0.06249   0.06862   0.07933   0.08026
 Alpha virt. eigenvalues --    0.08440   0.09022   0.09107   0.09435   0.10023

 Mulliken charges:
               1
     1  C   -0.427788
     2  H    0.202198
     3  H    0.182974
     4  C   -0.331010
     5  H    0.179428
     6  N    0.176792
     7  H    0.192007
     8  H    0.147874
     9  H    0.185463
    10  C   -0.670298
    11  H    0.194328
    12  C   -0.227738
    13  C    0.091347
    14  H    0.254775
    15  O   -0.323368
    16  C    1.148635
    17  C   -0.320279
    18  C   -0.650035
    19  O   -0.309036
    20  C   -0.367782
    21  C   -0.411712
    22  H    0.275519
    23  H    0.334259
    24  H    0.267989
    25  C    0.100284
    26  H    0.286966
    27  F   -0.181792
 Sum of Mulliken charges =   0.00000

 Dipole moment (field-independent basis, Debye):
    X=             -3.8418    Y=              4.1886    Z=              0.9637  Tot=              5.7647
 Quadrupole moment (field-independent basis, Debye-Ang):
   XX=            -59.6561   YY=           -106.4919   ZZ=            -84.3842
   XY=             -3.9755   XZ=             -0.3847   YZ=             -0.1374

 Normal termination of Gaussian 09 at Fri Jul 28 03:01:20 2017.
