 Gaussian 09, Revision D.01,
 Gaussian 09:  ES64L-G09RevD.01 24-Apr-2013

 ----------------------------------------------------------------------
 # wb97xd 6-311++g** opt=CalcFC guess=read geom=allcheck SCRF=(PCM,solv
 ent=dichloromethane)
 ----------------------------------------------------------------------

 Structure from the checkpoint file:  "4_opt_DCM.chk"
 -----------
 Geom Opt s0
 -----------
 Charge =  0 Multiplicity = 1

 SCF Done:  E(RwB97XD) =  -731.403739776     A.U. after   15 cycles

  Exact polarizability:   0.000   0.000   0.000   0.000   0.000   0.000
 Approx polarizability: 212.652   6.040 179.008   0.310  -0.242 100.834

 SCF Done:  E(RwB97XD) =  -731.404335319     A.U. after   15 cycles
 SCF Done:  E(RwB97XD) =  -731.402174160     A.U. after   18 cycles
 SCF Done:  E(RwB97XD) =  -731.404340686     A.U. after   12 cycles
 SCF Done:  E(RwB97XD) =  -731.404355070     A.U. after   12 cycles
 SCF Done:  E(RwB97XD) =  -731.404360324     A.U. after   12 cycles
 SCF Done:  E(RwB97XD) =  -731.404360755     A.U. after   11 cycles
 SCF Done:  E(RwB97XD) =  -731.404361719     A.U. after   11 cycles
 SCF Done:  E(RwB97XD) =  -731.404360826     A.U. after   11 cycles
 SCF Done:  E(RwB97XD) =  -731.404359275     A.U. after   12 cycles
 SCF Done:  E(RwB97XD) =  -731.404365167     A.U. after   14 cycles
 SCF Done:  E(RwB97XD) =  -731.404369368     A.U. after   13 cycles
 SCF Done:  E(RwB97XD) =  -731.404369566     A.U. after   10 cycles
 SCF Done:  E(RwB97XD) =  -731.404371157     A.U. after   12 cycles
 SCF Done:  E(RwB97XD) =  -731.404370183     A.U. after   11 cycles
 SCF Done:  E(RwB97XD) =  -731.404369867     A.U. after   13 cycles
 SCF Done:  E(RwB97XD) =  -731.404370274     A.U. after    9 cycles
 SCF Done:  E(RwB97XD) =  -731.404370159     A.U. after    9 cycles
 SCF Done:  E(RwB97XD) =  -731.404370183     A.U. after    9 cycles
 SCF Done:  E(RwB97XD) =  -731.404370244     A.U. after    7 cycles
 Optimization completed.
    -- Stationary point found.

                         Standard orientation:
 ---------------------------------------------------------------------
 Center     Atomic      Atomic             Coordinates (Angstroms)
 Number     Number       Type             X           Y           Z
 ---------------------------------------------------------------------
      1          6           0        3.745916    1.789497   -0.103825
      2          1           0        4.759637    2.180834   -0.166120
      3          1           0        3.194685    2.100875   -0.995607
      4          6           0        5.109287   -0.287730    0.041650
      5          1           0        5.682141   -0.052261   -0.859022
      6          7           0        3.798443    0.339975   -0.016338
      7          1           0        3.258491    2.213287    0.779249
      8          1           0        4.994168   -1.368113    0.114397
      9          1           0        5.661594    0.067807    0.915343
     10          6           0        2.680697   -0.376729    0.024114
     11          1           0        2.816135   -1.451924    0.088106
     12          6           0        1.395766    0.108356   -0.006510
     13          6           0        0.307302   -0.821370    0.029875
     14          1           0        1.210805    1.169472   -0.065877
     15          8           0        0.495553   -2.059475    0.068151
     16          6           0       -1.102775   -0.325406    0.014722
     17          6           0       -2.166774   -1.253723   -0.029855
     18          6           0       -1.416004    1.042423    0.043815
     19          8           0       -1.964975   -2.579652   -0.049970
     20          6           0       -3.491310   -0.802370   -0.055813
     21          6           0       -2.726757    1.449243    0.023137
     22          1           0       -0.644619    1.798903    0.088553
     23          1           0       -0.982482   -2.698444   -0.003510
     24          1           0       -4.285792   -1.537624   -0.093580
     25          6           0       -3.779169    0.547906   -0.029375
     26          9           0       -3.003793    2.776007    0.055760
     27          1           0       -4.801424    0.905733   -0.046470
 ---------------------------------------------------------------------

 The electronic state is 1-A.
 Alpha  occ. eigenvalues --  -24.82306 -19.26674 -19.23140 -14.49194 -10.38234
 Alpha  occ. eigenvalues --  -10.37474 -10.36460 -10.35002 -10.32533 -10.32394
 Alpha  occ. eigenvalues --  -10.31123 -10.30908 -10.30892 -10.29862 -10.27499
 Alpha  occ. eigenvalues --   -1.33610  -1.17440  -1.13413  -1.08684  -0.97785
 Alpha  occ. eigenvalues --   -0.89876  -0.87757  -0.85251  -0.84225  -0.80511
 Alpha  occ. eigenvalues --   -0.75841  -0.71905  -0.69960  -0.65494  -0.64466
 Alpha  occ. eigenvalues --   -0.63096  -0.60794  -0.60568  -0.57985  -0.57629
 Alpha  occ. eigenvalues --   -0.56824  -0.55054  -0.53564  -0.52679  -0.52480
 Alpha  occ. eigenvalues --   -0.52010  -0.50602  -0.50472  -0.49962  -0.48348
 Alpha  occ. eigenvalues --   -0.48103  -0.47065  -0.46243  -0.44659  -0.43026
 Alpha  occ. eigenvalues --   -0.41635  -0.35407  -0.35034  -0.30912  -0.29201
 Alpha virt. eigenvalues --   -0.00863   0.03912   0.04771   0.04831   0.05359
 Alpha virt. eigenvalues --    0.06119   0.06592   0.06751   0.07912   0.07991
 Alpha virt. eigenvalues --    0.08429   0.08870   0.09313   0.10258   0.11225

 Mulliken charges:
               1
     1  C   -0.460143
     2  H    0.224387
     3  H    0.195520
     4  C   -0.325986
     5  H    0.200669
     6  N    0.132869
     7  H    0.202173
     8  H    0.151355
     9  H    0.200229
    10  C    0.476669
    11  H    0.245079
    12  C   -0.451472
    13  C   -0.487075
    14  H    0.143690
    15  O   -0.404610
    16  C    1.825069
    17  C    0.103608
    18  C   -1.599452
    19  O   -0.352643
    20  C   -0.482538
    21  C   -0.577022
    22  H    0.208159
    23  H    0.374511
    24  H    0.256920
    25  C    0.103338
    26  F   -0.177776
    27  H    0.274472
 Sum of Mulliken charges =   0.00000

 Dipole moment (field-independent basis, Debye):
    X=              8.0549    Y=              3.8495    Z=             -0.1079  Tot=              8.9281
 Quadrupole moment (field-independent basis, Debye-Ang):
   XX=            -50.4974   YY=            -98.7087   ZZ=            -90.8729
   XY=              5.4906   XZ=              0.1288   YZ=             -0.3330

 Normal termination of Gaussian 09 at Tue Jan 31 00:11:05 2017.
