 Gaussian 09, Revision D.01,
 Gaussian 09:  ES64L-G09RevD.01 24-Apr-2013

 ----------------------------------------------------------------------
 # wb97xd 6-311++g** opt td=(nstates=1,root=1) SCRF=(PCM,solvent=dichlo
 romethane)
 ----------------------------------------------------------------------

 -------------
 restarted opt
 -------------
 Symbolic Z-matrix:
 Charge =  0 Multiplicity = 1

 SCF Done:  E(RwB97XD) =  -731.309982933     A.U. after   20 cycles
 SCF Done:  E(RwB97XD) =  -731.320861540     A.U. after   17 cycles
 SCF Done:  E(RwB97XD) =  -731.322717195     A.U. after   17 cycles
 SCF Done:  E(RwB97XD) =  -731.325022020     A.U. after   16 cycles
 SCF Done:  E(RwB97XD) =  -731.329742962     A.U. after   17 cycles
 SCF Done:  E(RwB97XD) =  -731.332622381     A.U. after   16 cycles
 SCF Done:  E(RwB97XD) =  -731.345578419     A.U. after   18 cycles
 SCF Done:  E(RwB97XD) =  -731.346196325     A.U. after   17 cycles
 SCF Done:  E(RwB97XD) =  -731.354285431     A.U. after   19 cycles
 SCF Done:  E(RwB97XD) =  -731.361821976     A.U. after   19 cycles
 SCF Done:  E(RwB97XD) =  -731.385577304     A.U. after   12 cycles
 SCF Done:  E(RwB97XD) =  -731.385567164     A.U. after   11 cycles
 SCF Done:  E(RwB97XD) =  -731.385563179     A.U. after   11 cycles
 SCF Done:  E(RwB97XD) =  -731.385560123     A.U. after    9 cycles
 SCF Done:  E(RwB97XD) =  -731.385562640     A.U. after    9 cycles
 SCF Done:  E(RwB97XD) =  -731.385564820     A.U. after    8 cycles
 SCF Done:  E(RwB97XD) =  -731.385564983     A.U. after    7 cycles
 SCF Done:  E(RwB97XD) =  -731.385566059     A.U. after    8 cycles
 SCF Done:  E(RwB97XD) =  -731.385566320     A.U. after    7 cycles
 SCF Done:  E(RwB97XD) =  -731.385565953     A.U. after    7 cycles

 Excitation energies and oscillator strengths:

 Excited State   1:      Singlet-A      2.7146 eV  456.74 nm  f=0.6871  <S**2>=0.000
      55 -> 56         0.69377
 This state for optimization and/or second-order correction.
 Total Energy, E(TD-HF/TD-KS) =  -731.285807640
 Copying the excited state density for this state as the 1-particle RhoCI density.

 Optimization completed.
    -- Stationary point found.

                         Standard orientation:
 ---------------------------------------------------------------------
 Center     Atomic      Atomic             Coordinates (Angstroms)
 Number     Number       Type             X           Y           Z
 ---------------------------------------------------------------------
      1          6           0        3.718490   -1.805187   -0.005300
      2          1           0        4.725431   -2.218073   -0.015396
      3          1           0        3.199320   -2.167951    0.888088
      4          6           0        5.117105    0.247792    0.003953
      5          1           0        5.672293   -0.059190    0.895302
      6          7           0        3.797474   -0.357448   -0.002315
      7          1           0        3.184025   -2.162674   -0.891618
      8          1           0        5.022990    1.332659    0.004005
      9          1           0        5.679928   -0.058514   -0.882735
     10          6           0        2.691222    0.392946    0.000482
     11          1           0        2.852100    1.464812    0.002911
     12          6           0        1.392870   -0.090534    0.000180
     13          6           0        0.281735    0.778501    0.000837
     14          1           0        1.220442   -1.156586   -0.000782
     15          8           0        0.547977    2.096575    0.001384
     16          6           0       -1.081341    0.315685    0.000668
     17          6           0       -2.192776    1.297870   -0.001113
     18          6           0       -1.421056   -1.040935    0.002029
     19          8           0       -1.933844    2.539504   -0.001993
     20          6           0       -3.532372    0.820009   -0.001835
     21          6           0       -2.758630   -1.425031    0.001116
     22          1           0       -0.675271   -1.824041    0.003897
     23          1           0       -0.331877    2.557383    0.000458
     24          1           0       -4.320143    1.564049   -0.003336
     25          6           0       -3.829195   -0.535640   -0.000866
     26          9           0       -3.021663   -2.742747    0.002325
     27          1           0       -4.845964   -0.906508   -0.001546
 ---------------------------------------------------------------------

 The electronic state is 1-A.
 Alpha  occ. eigenvalues --  -24.81745 -19.28969 -19.20574 -14.50540 -10.40176
 Alpha  occ. eigenvalues --  -10.36632 -10.36606 -10.35705 -10.33035 -10.32950
 Alpha  occ. eigenvalues --  -10.30861 -10.30707 -10.30379 -10.29239 -10.28735
 Alpha  occ. eigenvalues --   -1.33544  -1.18820  -1.10905  -1.09629  -0.96220
 Alpha  occ. eigenvalues --   -0.91769  -0.87918  -0.84908  -0.83448  -0.81124
 Alpha  occ. eigenvalues --   -0.75699  -0.71036  -0.70342  -0.67366  -0.65557
 Alpha  occ. eigenvalues --   -0.62097  -0.61075  -0.60368  -0.58294  -0.57631
 Alpha  occ. eigenvalues --   -0.56514  -0.55706  -0.54110  -0.52752  -0.52456
 Alpha  occ. eigenvalues --   -0.51026  -0.50883  -0.50262  -0.50032  -0.48865
 Alpha  occ. eigenvalues --   -0.47938  -0.47637  -0.46086  -0.44759  -0.42805
 Alpha  occ. eigenvalues --   -0.41041  -0.36364  -0.33578  -0.31651  -0.26656
 Alpha virt. eigenvalues --   -0.03062   0.03807   0.04891   0.05070   0.05302
 Alpha virt. eigenvalues --    0.06080   0.06665   0.06803   0.07884   0.08391
 Alpha virt. eigenvalues --    0.08489   0.08717   0.09373   0.10368   0.11231

 Mulliken charges:
               1
     1  C   -0.481548
     2  H    0.230148
     3  H    0.206568
     4  C   -0.333653
     5  H    0.206419
     6  N    0.143829
     7  H    0.205280
     8  H    0.160953
     9  H    0.205866
    10  C    0.468531
    11  H    0.264632
    12  C   -0.440216
    13  C    0.007054
    14  H    0.142530
    15  O   -0.323618
    16  C    1.660992
    17  C   -0.276117
    18  C   -1.634489
    19  O   -0.517376
    20  C   -0.406086
    21  C   -0.521457
    22  H    0.211968
    23  H    0.408011
    24  H    0.240351
    25  C    0.062702
    26  F   -0.168955
    27  H    0.277682
 Sum of Mulliken charges =   0.00000

 Dipole moment (field-independent basis, Debye):
    X=             11.7830    Y=             -4.7101    Z=              0.0041  Tot=             12.6895
 Quadrupole moment (field-independent basis, Debye-Ang):
   XX=            -50.9553   YY=           -101.3640   ZZ=            -91.0575
   XY=             -0.8753   XZ=              0.0167   YZ=              0.0309

 Normal termination of Gaussian 09 at Wed Feb  1 09:05:37 2017.
