 Gaussian 09, Revision D.01,
 Gaussian 09:  ES64L-G09RevD.01 24-Apr-2013

 ----------------------------------------------------------------------
 # wb97xd 6-311++g** opt integral=ultrafine td=(nstates=1,root=1) SCRF=
 (PCM,solvent=dichloromethane)
 ----------------------------------------------------------------------

 -------------
 restarted opt
 -------------
 Symbolic Z-matrix:
 Charge =  0 Multiplicity = 1

 SCF Done:  E(RwB97XD) =  -731.309925607     A.U. after   20 cycles
 SCF Done:  E(RwB97XD) =  -731.320865170     A.U. after   17 cycles
 SCF Done:  E(RwB97XD) =  -731.322574510     A.U. after   17 cycles
 SCF Done:  E(RwB97XD) =  -731.324976638     A.U. after   16 cycles
 SCF Done:  E(RwB97XD) =  -731.328575844     A.U. after   17 cycles
 SCF Done:  E(RwB97XD) =  -731.333344293     A.U. after   17 cycles
 SCF Done:  E(RwB97XD) =  -731.337809469     A.U. after   16 cycles
 SCF Done:  E(RwB97XD) =  -731.342926972     A.U. after   17 cycles
 SCF Done:  E(RwB97XD) =  -731.355297077     A.U. after   19 cycles
 SCF Done:  E(RwB97XD) =  -731.362083153     A.U. after   17 cycles
 SCF Done:  E(RwB97XD) =  -731.385481307     A.U. after   12 cycles
 SCF Done:  E(RwB97XD) =  -731.385478574     A.U. after   11 cycles
 SCF Done:  E(RwB97XD) =  -731.385529368     A.U. after   12 cycles
 SCF Done:  E(RwB97XD) =  -731.385593407     A.U. after   12 cycles
 SCF Done:  E(RwB97XD) =  -731.385654576     A.U. after   12 cycles
 SCF Done:  E(RwB97XD) =  -731.385654433     A.U. after   11 cycles
 SCF Done:  E(RwB97XD) =  -731.385645292     A.U. after   10 cycles
 SCF Done:  E(RwB97XD) =  -731.385638463     A.U. after    9 cycles
 SCF Done:  E(RwB97XD) =  -731.385635969     A.U. after    8 cycles
 SCF Done:  E(RwB97XD) =  -731.385634980     A.U. after    7 cycles

 Excitation energies and oscillator strengths:

 Excited State   1:      Singlet-A      2.7148 eV  456.70 nm  f=0.6871  <S**2>=0.000
      55 -> 56         0.69377
 This state for optimization and/or second-order correction.
 Total Energy, E(TD-HF/TD-KS) =  -731.285869231
 Copying the excited state density for this state as the 1-particle RhoCI density.

 Optimization completed.
    -- Stationary point found.

                         Standard orientation:
 ---------------------------------------------------------------------
 Center     Atomic      Atomic             Coordinates (Angstroms)
 Number     Number       Type             X           Y           Z
 ---------------------------------------------------------------------
      1          6           0        3.717415   -1.805082   -0.000129
      2          1           0        4.724734   -2.217098   -0.000089
      3          1           0        3.190589   -2.165197    0.889793
      4          6           0        5.117196    0.246372   -0.000225
      5          1           0        5.675679   -0.060940    0.888888
      6          7           0        3.796783   -0.357161   -0.000135
      7          1           0        3.190660   -2.165200   -0.890097
      8          1           0        5.025648    1.331437   -0.000912
      9          1           0        5.675986   -0.062028   -0.888755
     10          6           0        2.691369    0.394335    0.000007
     11          1           0        2.853478    1.466000   -0.000039
     12          6           0        1.392622   -0.087986    0.000200
     13          6           0        0.281209    0.780534    0.000317
     14          1           0        1.220155   -1.154009    0.000250
     15          8           0        0.545960    2.098758    0.000536
     16          6           0       -1.081210    0.316258    0.000145
     17          6           0       -2.193750    1.297441   -0.000144
     18          6           0       -1.419791   -1.040553    0.000118
     19          8           0       -1.935435    2.539214   -0.000303
     20          6           0       -3.532717    0.818261   -0.000256
     21          6           0       -2.756899   -1.426105    0.000038
     22          1           0       -0.673681   -1.823441    0.000310
     23          1           0       -0.334756    2.558624    0.000224
     24          1           0       -4.321709    1.561098   -0.000464
     25          6           0       -3.828380   -0.537821   -0.000202
     26          9           0       -3.018429   -2.744216    0.000119
     27          1           0       -4.844985   -0.908883   -0.000310
 ---------------------------------------------------------------------

 The electronic state is 1-A.
 Alpha  occ. eigenvalues --  -24.81743 -19.28962 -19.20577 -14.50543 -10.40172
 Alpha  occ. eigenvalues --  -10.36634 -10.36609 -10.35707 -10.33034 -10.32954
 Alpha  occ. eigenvalues --  -10.30861 -10.30704 -10.30375 -10.29232 -10.28733
 Alpha  occ. eigenvalues --   -1.33539  -1.18815  -1.10909  -1.09630  -0.96221
 Alpha  occ. eigenvalues --   -0.91769  -0.87919  -0.84903  -0.83453  -0.81127
 Alpha  occ. eigenvalues --   -0.75701  -0.71037  -0.70341  -0.67362  -0.65556
 Alpha  occ. eigenvalues --   -0.62098  -0.61080  -0.60369  -0.58294  -0.57632
 Alpha  occ. eigenvalues --   -0.56511  -0.55708  -0.54108  -0.52751  -0.52451
 Alpha  occ. eigenvalues --   -0.51035  -0.50879  -0.50260  -0.50037  -0.48867
 Alpha  occ. eigenvalues --   -0.47932  -0.47635  -0.46083  -0.44762  -0.42809
 Alpha  occ. eigenvalues --   -0.41043  -0.36362  -0.33581  -0.31649  -0.26657
 Alpha virt. eigenvalues --   -0.03062   0.03807   0.04889   0.05072   0.05303
 Alpha virt. eigenvalues --    0.06079   0.06666   0.06803   0.07885   0.08391
 Alpha virt. eigenvalues --    0.08488   0.08714   0.09375   0.10369   0.11230

 Mulliken charges:
               1
     1  C   -0.482054
     2  H    0.229977
     3  H    0.206057
     4  C   -0.334054
     5  H    0.206237
     6  N    0.143870
     7  H    0.206114
     8  H    0.160962
     9  H    0.206163
    10  C    0.468186
    11  H    0.264556
    12  C   -0.438410
    13  C    0.006919
    14  H    0.142278
    15  O   -0.324473
    16  C    1.661186
    17  C   -0.275847
    18  C   -1.635012
    19  O   -0.517744
    20  C   -0.406189
    21  C   -0.521059
    22  H    0.212279
    23  H    0.408393
    24  H    0.240675
    25  C    0.062632
    26  F   -0.169041
    27  H    0.277401
 Sum of Mulliken charges =   0.00000

 Dipole moment (field-independent basis, Debye):
    X=             11.7860    Y=             -4.7118    Z=             -0.0003  Tot=             12.6929
 Quadrupole moment (field-independent basis, Debye-Ang):
   XX=            -50.9321   YY=           -101.3789   ZZ=            -91.0578
   XY=             -0.8661   XZ=             -0.0023   YZ=              0.0007

 Normal termination of Gaussian 09 at Mon Mar 13 13:49:01 2017.
