 Gaussian 09, Revision D.01,
 Gaussian 09:  ES64L-G09RevD.01 24-Apr-2013

 ----------------------------------
 # wb97xd 6-311++g** td=(nstates=5)
 ----------------------------------

 ---
 exc
 ---
 Symbolic Z-matrix:
 Charge =  0 Multiplicity = 1

                         Standard orientation:
 ---------------------------------------------------------------------
 Center     Atomic      Atomic             Coordinates (Angstroms)
 Number     Number       Type             X           Y           Z
 ---------------------------------------------------------------------
      1          6           0       -3.781681   -2.076392   -0.193014
      2          1           0       -4.725608   -2.615079   -0.113305
      3          1           0       -3.357384   -2.253595   -1.188304
      4          6           0       -5.387191   -0.195120    0.029780
      5          1           0       -5.857219   -0.355547   -0.946995
      6          7           0       -4.015817   -0.665434    0.035430
      7          1           0       -3.089972   -2.474478    0.555372
      8          1           0       -5.408696    0.871741    0.250879
      9          1           0       -5.974752   -0.718172    0.790025
     10          6           0       -2.983695    0.190631    0.092925
     11          1           0       -3.244177    1.233686    0.247928
     12          6           0       -1.661317   -0.113724   -0.014060
     13          6           0       -0.698215    0.964401    0.089522
     14          1           0       -1.333293   -1.125441   -0.195995
     15          8           0       -1.070269    2.138874    0.260725
     16          6           0        0.756655    0.678525   -0.025465
     17          6           0        1.673419    1.752930   -0.037335
     18          6           0        1.262709   -0.627714   -0.120644
     19          8           0        1.297761    3.030664    0.071239
     20          6           0        3.042227    1.492109   -0.175818
     21          6           0        2.612980   -0.873374   -0.246467
     22          1           0        0.603467   -1.485370   -0.098493
     23          1           0        0.318029    3.021117    0.180084
     24          1           0        3.721131    2.335971   -0.200885
     25          6           0        3.508010    0.199028   -0.285793
     26          1           0        4.569016    0.014379   -0.412656
     27          8           0        3.037768   -2.173782   -0.383175
     28          6           0        3.892959   -2.632834    0.646751
     29          1           0        4.840674   -2.082846    0.668188
     30          1           0        3.407233   -2.542720    1.625643
     31          1           0        4.099029   -3.682452    0.437890
 ---------------------------------------------------------------------

 SCF Done:  E(RwB97XD) =  -746.667262082     A.U. after   17 cycles

 Excitation energies and oscillator strengths:

 Excited State   1:      Singlet-A      3.9807 eV  311.46 nm  f=0.3675  <S**2>=0.000
      59 -> 60         0.67532
      59 -> 64        -0.10429
 This state for optimization and/or second-order correction.
 Total Energy, E(TD-HF/TD-KS) =  -746.520973363
 Copying the excited state density for this state as the 1-particle RhoCI density.

 Excited State   2:      Singlet-A      4.2243 eV  293.50 nm  f=0.0088  <S**2>=0.000
      56 -> 60         0.15785
      57 -> 60         0.65309

 Excited State   3:      Singlet-A      4.4806 eV  276.72 nm  f=0.3171  <S**2>=0.000
      58 -> 60         0.67297

 Excited State   4:      Singlet-A      5.2933 eV  234.23 nm  f=0.0065  <S**2>=0.000
      56 -> 60         0.44179
      57 -> 60        -0.12505
      58 -> 60        -0.11192
      58 -> 64        -0.11718
      58 -> 66        -0.13221
      59 -> 64        -0.23714
      59 -> 66        -0.31409
      59 -> 72        -0.16357

 Excited State   5:      Singlet-A      5.4822 eV  226.16 nm  f=0.0326  <S**2>=0.000
      58 -> 61         0.49433
      58 -> 71        -0.14676
      59 -> 61        -0.35250

 The electronic state is 1-A.
 Alpha  occ. eigenvalues --  -19.26282 -19.24977 -19.22125 -14.48988 -10.37222
 Alpha  occ. eigenvalues --  -10.34866 -10.34497 -10.33898 -10.33580 -10.33416
 Alpha  occ. eigenvalues --  -10.33016 -10.29321 -10.29311 -10.29064 -10.28190
 Alpha  occ. eigenvalues --  -10.27219  -1.16019  -1.15855  -1.12551  -1.08739
 Alpha  occ. eigenvalues --   -0.95668  -0.89363  -0.86489  -0.85208  -0.84673
 Alpha  occ. eigenvalues --   -0.80099  -0.78286  -0.74187  -0.70288  -0.68079
 Alpha  occ. eigenvalues --   -0.65078  -0.63125  -0.61471  -0.59952  -0.58603
 Alpha  occ. eigenvalues --   -0.58433  -0.57592  -0.55161  -0.54252  -0.52748
 Alpha  occ. eigenvalues --   -0.52001  -0.51703  -0.51545  -0.51147  -0.50455
 Alpha  occ. eigenvalues --   -0.49567  -0.49469  -0.46992  -0.46869  -0.46490
 Alpha  occ. eigenvalues --   -0.44456  -0.42872  -0.41598  -0.40780  -0.36552
 Alpha  occ. eigenvalues --   -0.33686  -0.33643  -0.29659  -0.28068
 Alpha virt. eigenvalues --    0.00254   0.02809   0.04259   0.04792   0.05725
 Alpha virt. eigenvalues --    0.05877   0.06002   0.06189   0.07443   0.07597
 Alpha virt. eigenvalues --    0.07963   0.08232   0.08721   0.08866   0.09243

 Mulliken charges:
               1
     1  C   -0.441662
     2  H    0.194716
     3  H    0.192062
     4  C   -0.310812
     5  H    0.188460
     6  N    0.127039
     7  H    0.185482
     8  H    0.143028
     9  H    0.174426
    10  C    0.543624
    11  H    0.227349
    12  C   -0.337219
    13  C   -0.600817
    14  H    0.119012
    15  O   -0.328893
    16  C    1.967996
    17  C    0.010801
    18  C   -1.869498
    19  O   -0.298733
    20  C   -0.450054
    21  C   -0.648095
    22  H    0.163445
    23  H    0.359340
    24  H    0.237494
    25  C    0.286384
    26  H    0.200870
    27  O   -0.124923
    28  C   -0.354745
    29  H    0.130334
    30  H    0.149516
    31  H    0.164074
 Sum of Mulliken charges =   0.00000

 Dipole moment (field-independent basis, Debye):
    X=             -4.1738    Y=             -4.5111    Z=              0.6922  Tot=              6.1846
 Quadrupole moment (field-independent basis, Debye-Ang):
   XX=            -59.4759   YY=           -100.4790   ZZ=            -99.0650
   XY=              2.8172   XZ=              4.0446   YZ=             -3.4411

 Normal termination of Gaussian 09 at Tue Jul 18 16:19:09 2017.
