 Gaussian 09, Revision D.01,
 Gaussian 09:  ES64L-G09RevD.01 24-Apr-2013

 ----------------------------------------------------------------------
 # wb97xd 6-311++g** opt td=(nstates=1,root=1) SCRF=(PCM,solvent=dichlo
 romethane)
 ----------------------------------------------------------------------

 -----------
 Geom Opt s1
 -----------
 Symbolic Z-matrix:
 Charge =  0 Multiplicity = 1

 SCF Done:  E(RwB97XD) =  -746.633830058     A.U. after   18 cycles
 SCF Done:  E(RwB97XD) =  -746.639049258     A.U. after   16 cycles
 SCF Done:  E(RwB97XD) =  -746.640899613     A.U. after   17 cycles
 SCF Done:  E(RwB97XD) =  -746.642037361     A.U. after   16 cycles
 SCF Done:  E(RwB97XD) =  -746.641970009     A.U. after   14 cycles
 SCF Done:  E(RwB97XD) =  -746.642134353     A.U. after   14 cycles
 SCF Done:  E(RwB97XD) =  -746.642233528     A.U. after   13 cycles
 SCF Done:  E(RwB97XD) =  -746.642262297     A.U. after   12 cycles
 SCF Done:  E(RwB97XD) =  -746.642282027     A.U. after   13 cycles
 SCF Done:  E(RwB97XD) =  -746.642238474     A.U. after   12 cycles
 SCF Done:  E(RwB97XD) =  -746.642195966     A.U. after   12 cycles
 SCF Done:  E(RwB97XD) =  -746.642176317     A.U. after   12 cycles
 SCF Done:  E(RwB97XD) =  -746.642196484     A.U. after   12 cycles
 SCF Done:  E(RwB97XD) =  -746.642218474     A.U. after   12 cycles
 SCF Done:  E(RwB97XD) =  -746.642237081     A.U. after   10 cycles
 SCF Done:  E(RwB97XD) =  -746.642250655     A.U. after   10 cycles
 SCF Done:  E(RwB97XD) =  -746.642251484     A.U. after   10 cycles
 SCF Done:  E(RwB97XD) =  -746.642245140     A.U. after   10 cycles
 SCF Done:  E(RwB97XD) =  -746.642239760     A.U. after    9 cycles

 Excitation energies and oscillator strengths:

 Excited State   1:      Singlet-A      2.3268 eV  532.85 nm  f=0.0003  <S**2>=0.000
      56 -> 60        -0.12210
      59 -> 60        -0.67197
 This state for optimization and/or second-order correction.
 Total Energy, E(TD-HF/TD-KS) =  -746.556730536
 Copying the excited state density for this state as the 1-particle RhoCI density.

 Optimization completed.
    -- Stationary point found.

                         Standard orientation:
 ---------------------------------------------------------------------
 Center     Atomic      Atomic             Coordinates (Angstroms)
 Number     Number       Type             X           Y           Z
 ---------------------------------------------------------------------
      1          6           0        4.167698   -1.127074   -1.110638
      2          1           0        5.109094   -1.657784   -0.994172
      3          1           0        3.439298   -1.786881   -1.583619
      4          6           0        4.455186   -1.200043    1.361555
      5          1           0        4.458612   -2.290948    1.363336
      6          7           0        3.693615   -0.722117    0.212494
      7          1           0        4.329424   -0.248679   -1.735470
      8          1           0        4.005227   -0.834064    2.281430
      9          1           0        5.481052   -0.837081    1.285777
     10          6           0        2.618415    0.014718    0.369565
     11          1           0        2.350117    0.250598    1.393269
     12          6           0        1.793670    0.484007   -0.658684
     13          6           0        0.642295    1.319973   -0.336309
     14          1           0        2.089866    0.339344   -1.697071
     15          8           0        1.007281    2.572459   -0.292123
     16          6           0       -0.683838    0.825297   -0.154223
     17          6           0       -1.751792    1.719356    0.146861
     18          6           0       -0.982759   -0.544805   -0.251621
     19          8           0       -1.520227    3.060343    0.249621
     20          6           0       -3.024436    1.232635    0.338055
     21          6           0       -2.278075   -1.022557   -0.055513
     22          1           0       -0.200644   -1.258729   -0.488805
     23          1           0       -0.562824    3.194296    0.075779
     24          1           0       -3.819958    1.933048    0.568182
     25          6           0       -3.308068   -0.140129    0.241929
     26          1           0       -4.322499   -0.480318    0.398460
     27          8           0       -2.431650   -2.377385   -0.178723
     28          6           0       -3.728046   -2.911616   -0.006074
     29          1           0       -4.114370   -2.711300    0.999408
     30          1           0       -3.633867   -3.987306   -0.146229
     31          1           0       -4.428555   -2.511279   -0.747360
 ---------------------------------------------------------------------

 The electronic state is 1-A.
 Alpha  occ. eigenvalues --  -19.28648 -19.27398 -19.24795 -14.46117 -10.39378
 Alpha  occ. eigenvalues --  -10.36842 -10.35971 -10.33630 -10.32839 -10.31579
 Alpha  occ. eigenvalues --  -10.31505 -10.31421 -10.31419 -10.31117 -10.30067
 Alpha  occ. eigenvalues --  -10.26364  -1.18034  -1.16924  -1.12009  -1.06768
 Alpha  occ. eigenvalues --   -0.97679  -0.89662  -0.86966  -0.86266  -0.82952
 Alpha  occ. eigenvalues --   -0.80364  -0.79238  -0.75577  -0.70911  -0.68481
 Alpha  occ. eigenvalues --   -0.65428  -0.63186  -0.62193  -0.60058  -0.59765
 Alpha  occ. eigenvalues --   -0.57773  -0.56613  -0.56356  -0.54901  -0.53673
 Alpha  occ. eigenvalues --   -0.53253  -0.52232  -0.50815  -0.50477  -0.49678
 Alpha  occ. eigenvalues --   -0.49313  -0.48272  -0.47843  -0.47139  -0.46029
 Alpha  occ. eigenvalues --   -0.45563  -0.43843  -0.42717  -0.40797  -0.39665
 Alpha  occ. eigenvalues --   -0.35892  -0.35315  -0.29625  -0.26306
 Alpha virt. eigenvalues --   -0.02376   0.03934   0.04519   0.05325   0.05456
 Alpha virt. eigenvalues --    0.05746   0.06123   0.06765   0.07384   0.07671
 Alpha virt. eigenvalues --    0.07988   0.08407   0.08753   0.09100   0.09373

 Mulliken charges:
               1
     1  C   -0.436360
     2  H    0.205247
     3  H    0.185185
     4  C   -0.326036
     5  H    0.177471
     6  N    0.173720
     7  H    0.186143
     8  H    0.147554
     9  H    0.185339
    10  C   -0.676524
    11  H    0.196340
    12  C   -0.286920
    13  C    0.255403
    14  H    0.247404
    15  O   -0.331386
    16  C    1.222429
    17  C   -0.371842
    18  C   -1.305640
    19  O   -0.317050
    20  C   -0.243572
    21  C   -0.568858
    22  H    0.276191
    23  H    0.325412
    24  H    0.265049
    25  C    0.536651
    26  H    0.252624
    27  O   -0.166157
    28  C   -0.383429
    29  H    0.178642
    30  H    0.216171
    31  H    0.180798
 Sum of Mulliken charges =   0.00000

 Dipole moment (field-independent basis, Debye):
    X=              0.7895    Y=             -7.1716    Z=              1.0955  Tot=              7.2976
 Quadrupole moment (field-independent basis, Debye-Ang):
   XX=            -58.8295   YY=           -107.7875   ZZ=            -92.5707
   XY=             -1.6333   XZ=              0.8412   YZ=              0.0354

 Normal termination of Gaussian 09 at Fri Jul 28 03:24:28 2017.
