 Gaussian 09, Revision D.01,
 Gaussian 09:  ES64L-G09RevD.01 24-Apr-2013

 -----------------------
 # wb97xd 6-311++g** opt
 -----------------------

 -----------
 Geom Opt s0
 -----------
 Symbolic Z-matrix:
 Charge =  0 Multiplicity = 1

 SCF Done:  E(RwB97XD) =  -746.663287945     A.U. after   17 cycles
 SCF Done:  E(RwB97XD) =  -746.666962220     A.U. after   14 cycles
 SCF Done:  E(RwB97XD) =  -746.667193064     A.U. after   14 cycles
 SCF Done:  E(RwB97XD) =  -746.667147830     A.U. after   13 cycles
 SCF Done:  E(RwB97XD) =  -746.667242398     A.U. after   14 cycles
 SCF Done:  E(RwB97XD) =  -746.667244071     A.U. after   13 cycles
 SCF Done:  E(RwB97XD) =  -746.667257623     A.U. after   13 cycles
 SCF Done:  E(RwB97XD) =  -746.667259762     A.U. after   13 cycles
 SCF Done:  E(RwB97XD) =  -746.667260332     A.U. after   11 cycles
 SCF Done:  E(RwB97XD) =  -746.667260776     A.U. after   10 cycles
 SCF Done:  E(RwB97XD) =  -746.667261524     A.U. after   11 cycles
 SCF Done:  E(RwB97XD) =  -746.667261632     A.U. after   11 cycles
 SCF Done:  E(RwB97XD) =  -746.667261753     A.U. after   11 cycles
 SCF Done:  E(RwB97XD) =  -746.667261851     A.U. after   10 cycles
 SCF Done:  E(RwB97XD) =  -746.667261901     A.U. after    8 cycles
 SCF Done:  E(RwB97XD) =  -746.667261940     A.U. after    8 cycles
 SCF Done:  E(RwB97XD) =  -746.667261977     A.U. after    9 cycles
 SCF Done:  E(RwB97XD) =  -746.667262013     A.U. after    9 cycles
 SCF Done:  E(RwB97XD) =  -746.667262052     A.U. after    9 cycles
 SCF Done:  E(RwB97XD) =  -746.667262082     A.U. after    9 cycles
 Optimization completed.
    -- Stationary point found.

                         Standard orientation:
 ---------------------------------------------------------------------
 Center     Atomic      Atomic             Coordinates (Angstroms)
 Number     Number       Type             X           Y           Z
 ---------------------------------------------------------------------
      1          6           0       -3.781681   -2.076392   -0.193014
      2          1           0       -4.725608   -2.615079   -0.113304
      3          1           0       -3.357384   -2.253595   -1.188304
      4          6           0       -5.387191   -0.195120    0.029780
      5          1           0       -5.857219   -0.355547   -0.946995
      6          7           0       -4.015817   -0.665434    0.035429
      7          1           0       -3.089972   -2.474477    0.555372
      8          1           0       -5.408696    0.871741    0.250879
      9          1           0       -5.974752   -0.718172    0.790025
     10          6           0       -2.983695    0.190631    0.092925
     11          1           0       -3.244177    1.233686    0.247929
     12          6           0       -1.661317   -0.113723   -0.014060
     13          6           0       -0.698216    0.964401    0.089522
     14          1           0       -1.333293   -1.125441   -0.195995
     15          8           0       -1.070269    2.138874    0.260725
     16          6           0        0.756654    0.678525   -0.025465
     17          6           0        1.673419    1.752930   -0.037335
     18          6           0        1.262708   -0.627714   -0.120644
     19          8           0        1.297762    3.030664    0.071239
     20          6           0        3.042228    1.492109   -0.175817
     21          6           0        2.612980   -0.873374   -0.246467
     22          1           0        0.603467   -1.485370   -0.098492
     23          1           0        0.318029    3.021117    0.180084
     24          1           0        3.721132    2.335971   -0.200886
     25          6           0        3.508010    0.199028   -0.285794
     26          1           0        4.569016    0.014379   -0.412656
     27          8           0        3.037768   -2.173782   -0.383175
     28          6           0        3.892959   -2.632834    0.646751
     29          1           0        4.840674   -2.082846    0.668187
     30          1           0        3.407233   -2.542720    1.625642
     31          1           0        4.099028   -3.682451    0.437890
 ---------------------------------------------------------------------

 The electronic state is 1-A.
 Alpha  occ. eigenvalues --  -19.26282 -19.24977 -19.22125 -14.48988 -10.37222
 Alpha  occ. eigenvalues --  -10.34866 -10.34497 -10.33898 -10.33580 -10.33416
 Alpha  occ. eigenvalues --  -10.33016 -10.29321 -10.29311 -10.29064 -10.28190
 Alpha  occ. eigenvalues --  -10.27219  -1.16019  -1.15855  -1.12551  -1.08739
 Alpha  occ. eigenvalues --   -0.95668  -0.89363  -0.86489  -0.85208  -0.84673
 Alpha  occ. eigenvalues --   -0.80099  -0.78286  -0.74187  -0.70288  -0.68079
 Alpha  occ. eigenvalues --   -0.65078  -0.63125  -0.61471  -0.59952  -0.58603
 Alpha  occ. eigenvalues --   -0.58433  -0.57592  -0.55161  -0.54252  -0.52748
 Alpha  occ. eigenvalues --   -0.52001  -0.51703  -0.51545  -0.51147  -0.50455
 Alpha  occ. eigenvalues --   -0.49567  -0.49469  -0.46992  -0.46869  -0.46490
 Alpha  occ. eigenvalues --   -0.44456  -0.42872  -0.41598  -0.40780  -0.36552
 Alpha  occ. eigenvalues --   -0.33686  -0.33643  -0.29659  -0.28068
 Alpha virt. eigenvalues --    0.00254   0.02809   0.04259   0.04792   0.05725
 Alpha virt. eigenvalues --    0.05877   0.06002   0.06189   0.07443   0.07597
 Alpha virt. eigenvalues --    0.07963   0.08232   0.08721   0.08866   0.09243

 Mulliken charges:
               1
     1  C   -0.441662
     2  H    0.194716
     3  H    0.192062
     4  C   -0.310812
     5  H    0.188460
     6  N    0.127038
     7  H    0.185482
     8  H    0.143028
     9  H    0.174426
    10  C    0.543625
    11  H    0.227349
    12  C   -0.337217
    13  C   -0.600818
    14  H    0.119013
    15  O   -0.328892
    16  C    1.967997
    17  C    0.010802
    18  C   -1.869499
    19  O   -0.298734
    20  C   -0.450054
    21  C   -0.648099
    22  H    0.163444
    23  H    0.359340
    24  H    0.237495
    25  C    0.286385
    26  H    0.200870
    27  O   -0.124923
    28  C   -0.354745
    29  H    0.130334
    30  H    0.149516
    31  H    0.164074
 Sum of Mulliken charges =   0.00000

 Dipole moment (field-independent basis, Debye):
    X=             -4.1738    Y=             -4.5111    Z=              0.6923  Tot=              6.1846
 Quadrupole moment (field-independent basis, Debye-Ang):
   XX=            -59.4759   YY=           -100.4790   ZZ=            -99.0650
   XY=              2.8172   XZ=              4.0446   YZ=             -3.4411

 Normal termination of Gaussian 09 at Mon Jun 19 15:31:06 2017.
