 Gaussian 09, Revision D.01,
 Gaussian 09:  ES64L-G09RevD.01 24-Apr-2013

 ---------------------------------------------
 # wb97xd 6-311++g** opt td=(nstates=1,root=1)
 ---------------------------------------------

 -----------
 Geom Opt s1
 -----------
 Symbolic Z-matrix:
 Charge =  0 Multiplicity = 1

 SCF Done:  E(RwB97XD) =  -746.644785668     A.U. after   17 cycles
 SCF Done:  E(RwB97XD) =  -746.640878653     A.U. after   15 cycles
 SCF Done:  E(RwB97XD) =  -746.633182043     A.U. after   15 cycles
 SCF Done:  E(RwB97XD) =  -746.630084241     A.U. after   15 cycles
 SCF Done:  E(RwB97XD) =  -746.624904026     A.U. after   16 cycles
 SCF Done:  E(RwB97XD) =  -746.627833608     A.U. after   15 cycles
 SCF Done:  E(RwB97XD) =  -746.634982335     A.U. after   16 cycles
 SCF Done:  E(RwB97XD) =  -746.638778143     A.U. after   16 cycles
 SCF Done:  E(RwB97XD) =  -746.640130984     A.U. after   15 cycles
 SCF Done:  E(RwB97XD) =  -746.639680646     A.U. after   16 cycles
 SCF Done:  E(RwB97XD) =  -746.643385845     A.U. after   16 cycles
 SCF Done:  E(RwB97XD) =  -746.643573945     A.U. after   15 cycles
 SCF Done:  E(RwB97XD) =  -746.642358642     A.U. after   16 cycles
 SCF Done:  E(RwB97XD) =  -746.642296483     A.U. after   13 cycles
 SCF Done:  E(RwB97XD) =  -746.642172742     A.U. after   13 cycles
 SCF Done:  E(RwB97XD) =  -746.642101163     A.U. after   13 cycles
 SCF Done:  E(RwB97XD) =  -746.642099966     A.U. after   11 cycles
 SCF Done:  E(RwB97XD) =  -746.642095116     A.U. after   12 cycles
 SCF Done:  E(RwB97XD) =  -746.642100037     A.U. after   12 cycles
 SCF Done:  E(RwB97XD) =  -746.642099169     A.U. after   11 cycles

 Excitation energies and oscillator strengths:

 Excited State   1:      Singlet-A      3.2295 eV  383.92 nm  f=0.0026  <S**2>=0.000
      56 -> 60        -0.27544
      57 -> 60         0.62379
 This state for optimization and/or second-order correction.
 Total Energy, E(TD-HF/TD-KS) =  -746.523418340
 Copying the excited state density for this state as the 1-particle RhoCI density.

 Optimization completed.
    -- Stationary point found.

                         Standard orientation:
 ---------------------------------------------------------------------
 Center     Atomic      Atomic             Coordinates (Angstroms)
 Number     Number       Type             X           Y           Z
 ---------------------------------------------------------------------
      1          6           0        4.311674    1.057346   -0.989842
      2          1           0        5.348945    1.364602   -1.127255
      3          1           0        3.867117    0.867852   -1.978612
      4          6           0        5.370332   -1.045222   -0.275165
      5          1           0        5.366956   -1.551666   -1.251231
      6          7           0        4.270897   -0.110401   -0.139465
      7          1           0        3.772776    1.885523   -0.522685
      8          1           0        5.304317   -1.804481    0.505737
      9          1           0        6.320604   -0.519476   -0.158548
     10          6           0        3.056487   -0.603481    0.252667
     11          1           0        3.109867   -1.525971    0.819226
     12          6           0        1.837084   -0.011979    0.022541
     13          6           0        0.622315   -0.584064    0.465863
     14          1           0        1.750220    0.881503   -0.582267
     15          8           0        0.648923   -1.773079    1.014046
     16          6           0       -0.709886   -0.018052    0.273578
     17          6           0       -0.946548    1.375091    0.350755
     18          6           0       -1.795581   -0.874666    0.049053
     19          8           0        0.027310    2.278103    0.657136
     20          6           0       -2.219886    1.858402    0.123473
     21          6           0       -3.074782   -0.373129   -0.163978
     22          1           0       -1.642347   -1.944677   -0.003389
     23          1           0        0.772599    1.813066    1.050804
     24          1           0       -2.379669    2.928381    0.184534
     25          6           0       -3.287319    1.001534   -0.142277
     26          1           0       -4.268225    1.425681   -0.310146
     27          8           0       -4.042195   -1.303119   -0.393739
     28          6           0       -5.357929   -0.849687   -0.610231
     29          1           0       -5.742878   -0.302022    0.258079
     30          1           0       -5.422506   -0.211322   -1.499449
     31          1           0       -5.962127   -1.741975   -0.766707
 ---------------------------------------------------------------------

 The electronic state is 1-A.
 Alpha  occ. eigenvalues --  -19.27619 -19.27315 -19.19804 -14.49231 -10.36174
 Alpha  occ. eigenvalues --  -10.35494 -10.34779 -10.34112 -10.33787 -10.33448
 Alpha  occ. eigenvalues --  -10.33365 -10.29599 -10.29193 -10.28443 -10.28417
 Alpha  occ. eigenvalues --  -10.28131  -1.17038  -1.16840  -1.08814  -1.07669
 Alpha  occ. eigenvalues --   -0.95620  -0.89300  -0.86324  -0.85606  -0.85060
 Alpha  occ. eigenvalues --   -0.80551  -0.79335  -0.74200  -0.69658  -0.68726
 Alpha  occ. eigenvalues --   -0.65770  -0.63299  -0.62420  -0.60605  -0.58684
 Alpha  occ. eigenvalues --   -0.58417  -0.57380  -0.55881  -0.54308  -0.52398
 Alpha  occ. eigenvalues --   -0.51824  -0.51458  -0.51189  -0.50365  -0.49937
 Alpha  occ. eigenvalues --   -0.49229  -0.48614  -0.47429  -0.46126  -0.45825
 Alpha  occ. eigenvalues --   -0.44916  -0.43156  -0.41014  -0.40507  -0.38274
 Alpha  occ. eigenvalues --   -0.33351  -0.31197  -0.29914  -0.28010
 Alpha virt. eigenvalues --   -0.00719   0.03036   0.04291   0.04811   0.05689
 Alpha virt. eigenvalues --    0.05733   0.05993   0.06231   0.07508   0.07741
 Alpha virt. eigenvalues --    0.07820   0.08045   0.08342   0.08469   0.09093

 Mulliken charges:
               1
     1  C   -0.414015
     2  H    0.180437
     3  H    0.189163
     4  C   -0.353288
     5  H    0.188001
     6  N    0.134829
     7  H    0.175923
     8  H    0.155767
     9  H    0.159547
    10  C   -0.092732
    11  H    0.229539
    12  C   -0.191523
    13  C   -0.759214
    14  H    0.178816
    15  O   -0.333754
    16  C    1.874835
    17  C   -1.046537
    18  C   -0.346405
    19  O   -0.245249
    20  C   -0.499118
    21  C   -0.678250
    22  H    0.275770
    23  H    0.314992
    24  H    0.234075
    25  C    0.448019
    26  H    0.203624
    27  O   -0.134505
    28  C   -0.381087
    29  H    0.164287
    30  H    0.162881
    31  H    0.205172
 Sum of Mulliken charges =   0.00000

 Dipole moment (field-independent basis, Debye):
    X=              3.5732    Y=              2.1629    Z=             -2.3594  Tot=              4.7972
 Quadrupole moment (field-independent basis, Debye-Ang):
   XX=            -49.5038   YY=           -102.2906   ZZ=            -98.3792
   XY=             -3.0578   XZ=             -1.5279   YZ=              2.1929

 Normal termination of Gaussian 09 at Thu Jul 27 06:41:23 2017.
