 Gaussian 09, Revision D.01,
 Gaussian 09:  ES64L-G09RevD.01 24-Apr-2013

 ---------------------------------------------
 # wb97xd 6-311++g** opt td=(nstates=1,root=1)
 ---------------------------------------------

 -----------
 Geom Opt s1
 -----------
 Symbolic Z-matrix:
 Charge =  0 Multiplicity = 1

 SCF Done:  E(RwB97XD) =  -746.576486359     A.U. after   19 cycles
 SCF Done:  E(RwB97XD) =  -746.600627971     A.U. after   18 cycles
 SCF Done:  E(RwB97XD) =  -746.614879117     A.U. after   17 cycles
 SCF Done:  E(RwB97XD) =  -746.618096746     A.U. after   14 cycles
 SCF Done:  E(RwB97XD) =  -746.620948172     A.U. after   16 cycles
 SCF Done:  E(RwB97XD) =  -746.621852783     A.U. after   16 cycles
 SCF Done:  E(RwB97XD) =  -746.621978691     A.U. after   16 cycles
 SCF Done:  E(RwB97XD) =  -746.622219888     A.U. after   14 cycles
 SCF Done:  E(RwB97XD) =  -746.622390934     A.U. after   14 cycles
 SCF Done:  E(RwB97XD) =  -746.622256114     A.U. after   15 cycles
 SCF Done:  E(RwB97XD) =  -746.622401151     A.U. after   14 cycles
 SCF Done:  E(RwB97XD) =  -746.622399104     A.U. after   14 cycles
 SCF Done:  E(RwB97XD) =  -746.622404022     A.U. after   14 cycles
 SCF Done:  E(RwB97XD) =  -746.622382560     A.U. after   12 cycles
 SCF Done:  E(RwB97XD) =  -746.622375226     A.U. after   12 cycles
 SCF Done:  E(RwB97XD) =  -746.622365567     A.U. after   12 cycles
 SCF Done:  E(RwB97XD) =  -746.622372196     A.U. after   12 cycles

 Excitation energies and oscillator strengths:

 Excited State   1:      Singlet-A      2.2724 eV  545.60 nm  f=0.0001  <S**2>=0.000
      57 -> 60         0.13187
      59 -> 60         0.66086
      59 -> 78         0.10955
 This state for optimization and/or second-order correction.
 Total Energy, E(TD-HF/TD-KS) =  -746.538861407
 Copying the excited state density for this state as the 1-particle RhoCI density.

 Optimization completed.
    -- Stationary point found.

                         Standard orientation:
 ---------------------------------------------------------------------
 Center     Atomic      Atomic             Coordinates (Angstroms)
 Number     Number       Type             X           Y           Z
 ---------------------------------------------------------------------
      1          6           0        4.325858   -1.012789   -1.111286
      2          1           0        5.297083   -1.491677   -1.001075
      3          1           0        3.665349   -1.677532   -1.672963
      4          6           0        4.537654   -1.217008    1.358571
      5          1           0        4.651960   -2.302672    1.309051
      6          7           0        3.780907   -0.741471    0.211839
      7          1           0        4.451393   -0.080333   -1.665769
      8          1           0        4.016175   -0.957590    2.278109
      9          1           0        5.528187   -0.755501    1.368763
     10          6           0        2.632479   -0.090202    0.364233
     11          1           0        2.322841    0.089894    1.387561
     12          6           0        1.806007    0.354437   -0.655622
     13          6           0        0.645327    1.183311   -0.328277
     14          1           0        2.121519    0.266237   -1.693724
     15          8           0        1.143803    2.382720   -0.277046
     16          6           0       -0.695823    0.775546   -0.156110
     17          6           0       -1.706682    1.736463    0.142643
     18          6           0       -1.076551   -0.577871   -0.254619
     19          8           0       -1.412706    3.058423    0.247333
     20          6           0       -3.006339    1.323452    0.331051
     21          6           0       -2.393200   -0.973466   -0.059460
     22          1           0       -0.341678   -1.338931   -0.490755
     23          1           0       -0.461618    3.175642    0.083491
     24          1           0       -3.755475    2.073204    0.557783
     25          6           0       -3.369174   -0.027249    0.236108
     26          1           0       -4.402717   -0.304442    0.391409
     27          8           0       -2.629951   -2.317705   -0.180267
     28          6           0       -3.948724   -2.769255    0.000987
     29          1           0       -4.319175   -2.544645    1.008771
     30          1           0       -3.921999   -3.849939   -0.136460
     31          1           0       -4.632349   -2.331138   -0.736539
 ---------------------------------------------------------------------

 The electronic state is 1-A.
 Alpha  occ. eigenvalues --  -19.28428 -19.26485 -19.23169 -14.45688 -10.37871
 Alpha  occ. eigenvalues --  -10.36275 -10.35528 -10.34310 -10.32246 -10.31963
 Alpha  occ. eigenvalues --  -10.31838 -10.31181 -10.30961 -10.30599 -10.29585
 Alpha  occ. eigenvalues --  -10.26119  -1.18004  -1.16142  -1.11014  -1.06292
 Alpha  occ. eigenvalues --   -0.97209  -0.89009  -0.86777  -0.86066  -0.83291
 Alpha  occ. eigenvalues --   -0.80323  -0.78685  -0.75447  -0.70628  -0.68184
 Alpha  occ. eigenvalues --   -0.65399  -0.63012  -0.61850  -0.59932  -0.59472
 Alpha  occ. eigenvalues --   -0.57672  -0.56875  -0.56477  -0.54252  -0.53219
 Alpha  occ. eigenvalues --   -0.52920  -0.51641  -0.50613  -0.50129  -0.50118
 Alpha  occ. eigenvalues --   -0.48925  -0.48003  -0.47803  -0.46974  -0.45746
 Alpha  occ. eigenvalues --   -0.44681  -0.43028  -0.42513  -0.40332  -0.39173
 Alpha  occ. eigenvalues --   -0.34699  -0.34537  -0.29023  -0.25344
 Alpha virt. eigenvalues --   -0.01530   0.03461   0.03810   0.05146   0.05375
 Alpha virt. eigenvalues --    0.05915   0.06166   0.06522   0.07203   0.07339
 Alpha virt. eigenvalues --    0.07980   0.08285   0.08401   0.09326   0.09385

 Mulliken charges:
               1
     1  C   -0.435959
     2  H    0.181750
     3  H    0.174653
     4  C   -0.319787
     5  H    0.164063
     6  N    0.186769
     7  H    0.188291
     8  H    0.134979
     9  H    0.172459
    10  C   -0.679366
    11  H    0.153701
    12  C   -0.219431
    13  C    0.268588
    14  H    0.222459
    15  O   -0.232874
    16  C    1.130593
    17  C   -0.509361
    18  C   -1.176012
    19  O   -0.251576
    20  C   -0.143928
    21  C   -0.521485
    22  H    0.275108
    23  H    0.306360
    24  H    0.247850
    25  C    0.439894
    26  H    0.211285
    27  O   -0.135679
    28  C   -0.367740
    29  H    0.163018
    30  H    0.206134
    31  H    0.165246
 Sum of Mulliken charges =   0.00000

 Dipole moment (field-independent basis, Debye):
    X=              0.1705    Y=             -4.8214    Z=              0.7482  Tot=              4.8821
 Quadrupole moment (field-independent basis, Debye-Ang):
   XX=            -65.8618   YY=           -104.7761   ZZ=            -93.2920
   XY=             -1.3572   XZ=              0.1905   YZ=             -0.3975

 Normal termination of Gaussian 09 at Thu Jul 27 00:56:59 2017.
