 Gaussian 09, Revision D.01,
 Gaussian 09:  ES64L-G09RevD.01 24-Apr-2013

 ----------------------------------------------------------
 # wb97xd 6-311++g** opt SCRF=(PCM,solvent=dichloromethane)
 ----------------------------------------------------------

 -----------
 Geom Opt s0
 -----------
 Symbolic Z-matrix:
 Charge =  0 Multiplicity = 1

 SCF Done:  E(RwB97XD) =  -746.679792525     A.U. after   17 cycles
 SCF Done:  E(RwB97XD) =  -746.680218966     A.U. after   14 cycles
 SCF Done:  E(RwB97XD) =  -746.680116652     A.U. after   15 cycles
 SCF Done:  E(RwB97XD) =  -746.680352197     A.U. after    9 cycles
 SCF Done:  E(RwB97XD) =  -746.680384782     A.U. after   13 cycles
 SCF Done:  E(RwB97XD) =  -746.680393822     A.U. after   12 cycles
 SCF Done:  E(RwB97XD) =  -746.680396630     A.U. after   13 cycles
 SCF Done:  E(RwB97XD) =  -746.680404956     A.U. after   12 cycles
 SCF Done:  E(RwB97XD) =  -746.680412074     A.U. after   12 cycles
 SCF Done:  E(RwB97XD) =  -746.680419236     A.U. after   12 cycles
 SCF Done:  E(RwB97XD) =  -746.682746318     A.U. after   12 cycles
 SCF Done:  E(RwB97XD) =  -746.682756215     A.U. after   13 cycles
 SCF Done:  E(RwB97XD) =  -746.682766421     A.U. after   14 cycles
 SCF Done:  E(RwB97XD) =  -746.682774049     A.U. after   12 cycles
 SCF Done:  E(RwB97XD) =  -746.682781860     A.U. after   14 cycles
 SCF Done:  E(RwB97XD) =  -746.682782396     A.U. after   12 cycles
 SCF Done:  E(RwB97XD) =  -746.682783355     A.U. after   13 cycles
 SCF Done:  E(RwB97XD) =  -746.682783706     A.U. after   13 cycles
 SCF Done:  E(RwB97XD) =  -746.682783804     A.U. after   10 cycles
 SCF Done:  E(RwB97XD) =  -746.682783854     A.U. after   10 cycles
 Optimization completed.
    -- Stationary point found.

                         Standard orientation:
 ---------------------------------------------------------------------
 Center     Atomic      Atomic             Coordinates (Angstroms)
 Number     Number       Type             X           Y           Z
 ---------------------------------------------------------------------
      1          6           0       -3.758903   -2.126472   -0.165261
      2          1           0       -4.699925   -2.673297   -0.153161
      3          1           0       -3.249945   -2.321052   -1.114121
      4          6           0       -5.423793   -0.291264    0.053266
      5          1           0       -5.945629   -0.567226   -0.867010
      6          7           0       -4.031997   -0.707856   -0.009525
      7          1           0       -3.130673   -2.489735    0.653050
      8          1           0       -5.479090    0.789244    0.177737
      9          1           0       -5.923919   -0.769091    0.899591
     10          6           0       -3.036435    0.171654    0.047001
     11          1           0       -3.334297    1.209501    0.159855
     12          6           0       -1.694492   -0.108921   -0.019502
     13          6           0       -0.753232    0.969959    0.053378
     14          1           0       -1.351730   -1.124768   -0.139184
     15          8           0       -1.122497    2.163864    0.136626
     16          6           0        0.713918    0.685340    0.018123
     17          6           0        1.630602    1.759149   -0.051238
     18          6           0        1.220863   -0.617580    0.055948
     19          8           0        1.237765    3.047650   -0.073005
     20          6           0        2.996423    1.491990   -0.100993
     21          6           0        2.582561   -0.875433    0.017146
     22          1           0        0.557597   -1.469425    0.128459
     23          1           0        0.253671    3.023857    0.013450
     24          1           0        3.684881    2.326882   -0.160007
     25          6           0        3.477276    0.192283   -0.068171
     26          1           0        4.546301    0.027544   -0.105629
     27          8           0        2.949367   -2.188331    0.067468
     28          6           0        4.332115   -2.489041    0.054620
     29          1           0        4.806627   -2.147092   -0.871263
     30          1           0        4.844544   -2.042769    0.913574
     31          1           0        4.407063   -3.573042    0.116731
 ---------------------------------------------------------------------

 The electronic state is 1-A.
 Alpha  occ. eigenvalues --  -19.28176 -19.26062 -19.22847 -14.48969 -10.37893
 Alpha  occ. eigenvalues --  -10.35411 -10.34987 -10.34781 -10.33373 -10.32431
 Alpha  occ. eigenvalues --  -10.32272 -10.30410 -10.29945 -10.29703 -10.29036
 Alpha  occ. eigenvalues --  -10.27233  -1.17618  -1.16699  -1.13018  -1.08476
 Alpha  occ. eigenvalues --   -0.96595  -0.89453  -0.87052  -0.85903  -0.84076
 Alpha  occ. eigenvalues --   -0.80184  -0.79398  -0.74402  -0.70707  -0.68570
 Alpha  occ. eigenvalues --   -0.65080  -0.63267  -0.62176  -0.60471  -0.59282
 Alpha  occ. eigenvalues --   -0.57585  -0.57477  -0.56265  -0.54855  -0.52897
 Alpha  occ. eigenvalues --   -0.52314  -0.52149  -0.51690  -0.50348  -0.49963
 Alpha  occ. eigenvalues --   -0.49706  -0.48212  -0.47751  -0.47466  -0.46511
 Alpha  occ. eigenvalues --   -0.45515  -0.44636  -0.42082  -0.41442  -0.39085
 Alpha  occ. eigenvalues --   -0.34735  -0.34552  -0.29565  -0.28191
 Alpha virt. eigenvalues --   -0.00416   0.03920   0.04479   0.05263   0.05324
 Alpha virt. eigenvalues --    0.05941   0.06157   0.06838   0.07561   0.07770
 Alpha virt. eigenvalues --    0.08023   0.08592   0.08764   0.09174   0.09568

 Mulliken charges:
               1
     1  C   -0.462981
     2  H    0.225398
     3  H    0.199322
     4  C   -0.332931
     5  H    0.202137
     6  N    0.125569
     7  H    0.197913
     8  H    0.156649
     9  H    0.196334
    10  C    0.462268
    11  H    0.244030
    12  C   -0.391448
    13  C   -0.522251
    14  H    0.125332
    15  O   -0.400869
    16  C    2.000195
    17  C    0.106356
    18  C   -1.969283
    19  O   -0.367201
    20  C   -0.291661
    21  C   -0.862959
    22  H    0.201426
    23  H    0.367482
    24  H    0.254192
    25  C    0.296871
    26  H    0.242910
    27  O   -0.173129
    28  C   -0.392737
    29  H    0.173223
    30  H    0.175597
    31  H    0.214248
 Sum of Mulliken charges =   0.00000

 Dipole moment (field-independent basis, Debye):
    X=             -4.7365    Y=             -6.8416    Z=             -0.1997  Tot=              8.3236
 Quadrupole moment (field-independent basis, Debye-Ang):
   XX=            -42.0938   YY=           -103.0103   ZZ=            -98.9077
   XY=              1.8760   XZ=              0.1771   YZ=              0.3292

 Normal termination of Gaussian 09 at Thu Jul 27 22:18:06 2017.
