 Gaussian 09, Revision D.01,
 Gaussian 09:  ES64L-G09RevD.01 24-Apr-2013

 ----------------------------------------------------------------------
 # wb97xd 6-311++g** opt td=(nstates=1,root=1) SCRF=(PCM,solvent=dichlo
 romethane)
 ----------------------------------------------------------------------

 -----------
 Geom Opt s1
 -----------
 Symbolic Z-matrix:
 Charge =  0 Multiplicity = 1

 SCF Done:  E(RwB97XD) =  -746.682783854     A.U. after   17 cycles
 SCF Done:  E(RwB97XD) =  -746.670672620     A.U. after   16 cycles
 SCF Done:  E(RwB97XD) =  -746.653311180     A.U. after   17 cycles
 SCF Done:  E(RwB97XD) =  -746.669770382     A.U. after   13 cycles
 SCF Done:  E(RwB97XD) =  -746.669738024     A.U. after   15 cycles
 SCF Done:  E(RwB97XD) =  -746.668699404     A.U. after   15 cycles
 SCF Done:  E(RwB97XD) =  -746.653535113     A.U. after   17 cycles
 SCF Done:  E(RwB97XD) =  -746.665399797     A.U. after   14 cycles
 SCF Done:  E(RwB97XD) =  -746.664740448     A.U. after   15 cycles
 SCF Done:  E(RwB97XD) =  -746.628753295     A.U. after   16 cycles
 SCF Done:  E(RwB97XD) =  -746.660576878     A.U. after   12 cycles
 SCF Done:  E(RwB97XD) =  -746.660573520     A.U. after   14 cycles
 SCF Done:  E(RwB97XD) =  -746.660560405     A.U. after   13 cycles
 SCF Done:  E(RwB97XD) =  -746.660582342     A.U. after   13 cycles
 SCF Done:  E(RwB97XD) =  -746.660578021     A.U. after   12 cycles
 SCF Done:  E(RwB97XD) =  -746.660573675     A.U. after   12 cycles
 SCF Done:  E(RwB97XD) =  -746.660565221     A.U. after   12 cycles
 SCF Done:  E(RwB97XD) =  -746.660544061     A.U. after   12 cycles
 SCF Done:  E(RwB97XD) =  -746.660549253     A.U. after   11 cycles
 SCF Done:  E(RwB97XD) =  -746.660536089     A.U. after   11 cycles

 Excitation energies and oscillator strengths:

 Excited State   1:      Singlet-A      2.4401 eV  508.12 nm  f=0.5399  <S**2>=0.000
      59 -> 60        -0.69332
 This state for optimization and/or second-order correction.
 Total Energy, E(TD-HF/TD-KS) =  -746.570865079
 Copying the excited state density for this state as the 1-particle RhoCI density.

 Optimization completed.
    -- Stationary point found.

                         Standard orientation:
 ---------------------------------------------------------------------
 Center     Atomic      Atomic             Coordinates (Angstroms)
 Number     Number       Type             X           Y           Z
 ---------------------------------------------------------------------
      1          6           0        3.749475   -2.133665   -0.129248
      2          1           0        4.682082   -2.693903   -0.089032
      3          1           0        3.099970   -2.477233    0.682154
      4          6           0        5.431213   -0.312582    0.000050
      5          1           0        5.978500   -0.814269    0.802926
      6          7           0        4.038687   -0.720728    0.009114
      7          1           0        3.254591   -2.342093   -1.084815
      8          1           0        5.501016    0.764015    0.150132
      9          1           0        5.902679   -0.564637   -0.955518
     10          6           0        3.048994    0.182997    0.051373
     11          1           0        3.365498    1.215722    0.144612
     12          6           0        1.699155   -0.098731   -0.006510
     13          6           0        0.724139    0.919429    0.049458
     14          1           0        1.369938   -1.122298   -0.112193
     15          8           0        1.172863    2.185512    0.132197
     16          6           0       -0.694408    0.665664    0.023538
     17          6           0       -1.640834    1.798231   -0.049168
     18          6           0       -1.230795   -0.614245    0.070228
     19          8           0       -1.206986    2.992865   -0.068944
     20          6           0       -3.031526    1.512105   -0.097218
     21          6           0       -2.623109   -0.846011    0.016189
     22          1           0       -0.602946   -1.491640    0.158737
     23          1           0        0.366734    2.766773    0.080471
     24          1           0       -3.703881    2.360261   -0.162340
     25          6           0       -3.533902    0.217410   -0.073336
     26          1           0       -4.600545    0.046879   -0.120326
     27          8           0       -2.973736   -2.138698    0.062899
     28          6           0       -4.354105   -2.482851    0.035119
     29          1           0       -4.877791   -2.050511    0.891478
     30          1           0       -4.818860   -2.147929   -0.895594
     31          1           0       -4.390711   -3.567963    0.093441
 ---------------------------------------------------------------------

 The electronic state is 1-A.
 Alpha  occ. eigenvalues --  -19.28652 -19.27503 -19.19874 -14.50292 -10.39858
 Alpha  occ. eigenvalues --  -10.36412 -10.34752 -10.34235 -10.33279 -10.32922
 Alpha  occ. eigenvalues --  -10.32803 -10.29971 -10.29687 -10.29368 -10.29023
 Alpha  occ. eigenvalues --  -10.27868  -1.18440  -1.17633  -1.10120  -1.09355
 Alpha  occ. eigenvalues --   -0.95137  -0.91380  -0.87291  -0.84740  -0.84733
 Alpha  occ. eigenvalues --   -0.81360  -0.77704  -0.74775  -0.70398  -0.69149
 Alpha  occ. eigenvalues --   -0.66622  -0.63836  -0.61649  -0.60621  -0.59727
 Alpha  occ. eigenvalues --   -0.58112  -0.57010  -0.56119  -0.55055  -0.53772
 Alpha  occ. eigenvalues --   -0.52516  -0.51480  -0.51007  -0.50715  -0.50368
 Alpha  occ. eigenvalues --   -0.49589  -0.48560  -0.47644  -0.47602  -0.46398
 Alpha  occ. eigenvalues --   -0.45480  -0.44388  -0.42527  -0.41585  -0.37836
 Alpha  occ. eigenvalues --   -0.35548  -0.32987  -0.30985  -0.24949
 Alpha virt. eigenvalues --   -0.02784   0.03840   0.04505   0.05302   0.05506
 Alpha virt. eigenvalues --    0.05973   0.06112   0.06816   0.07675   0.07734
 Alpha virt. eigenvalues --    0.08045   0.08646   0.09128   0.09325   0.09572

 Mulliken charges:
               1
     1  C   -0.483548
     2  H    0.230466
     3  H    0.203320
     4  C   -0.341852
     5  H    0.197665
     6  N    0.131346
     7  H    0.208518
     8  H    0.164125
     9  H    0.210689
    10  C    0.417073
    11  H    0.262609
    12  C   -0.429675
    13  C   -0.033676
    14  H    0.123035
    15  O   -0.319807
    16  C    1.835048
    17  C   -0.261496
    18  C   -1.795130
    19  O   -0.532838
    20  C   -0.363516
    21  C   -0.842288
    22  H    0.202487
    23  H    0.405687
    24  H    0.235793
    25  C    0.299758
    26  H    0.246500
    27  O   -0.164585
    28  C   -0.366186
    29  H    0.174074
    30  H    0.172221
    31  H    0.214182
 Sum of Mulliken charges =   0.00000

 Dipole moment (field-independent basis, Debye):
    X=              8.1962    Y=             -8.3303    Z=             -0.0850  Tot=             11.6867
 Quadrupole moment (field-independent basis, Debye-Ang):
   XX=            -38.7021   YY=           -107.6730   ZZ=            -99.0538
   XY=              2.7578   XZ=             -0.2957   YZ=              0.8630

 Normal termination of Gaussian 09 at Sun Sep 10 11:07:35 2017.
