 Gaussian 09, Revision D.01,
 Gaussian 09:  ES64L-G09RevD.01 24-Apr-2013

 ----------------------------------------------------------------------
 # wb97xd 6-311++g** opt td=(nstates=1,root=1) SCRF=(PCM,solvent=dichlo
 romethane)
 ----------------------------------------------------------------------

 -----------
 Geom Opt s1
 -----------
 Symbolic Z-matrix:
 Charge =  0 Multiplicity = 1

 SCF Done:  E(RwB97XD) =  -746.607095201     A.U. after   20 cycles
 SCF Done:  E(RwB97XD) =  -746.607876992     A.U. after   17 cycles
 SCF Done:  E(RwB97XD) =  -746.608278969     A.U. after   16 cycles
 SCF Done:  E(RwB97XD) =  -746.608812959     A.U. after   16 cycles
 SCF Done:  E(RwB97XD) =  -746.609361124     A.U. after   15 cycles
 SCF Done:  E(RwB97XD) =  -746.610424916     A.U. after   16 cycles
 SCF Done:  E(RwB97XD) =  -746.610910740     A.U. after   16 cycles
 SCF Done:  E(RwB97XD) =  -746.610861872     A.U. after   16 cycles
 SCF Done:  E(RwB97XD) =  -746.610647724     A.U. after   15 cycles
 SCF Done:  E(RwB97XD) =  -746.610289601     A.U. after   15 cycles
 SCF Done:  E(RwB97XD) =  -746.610433345     A.U. after   15 cycles
 SCF Done:  E(RwB97XD) =  -746.610334470     A.U. after   14 cycles
 SCF Done:  E(RwB97XD) =  -746.610251816     A.U. after   14 cycles
 SCF Done:  E(RwB97XD) =  -746.610211394     A.U. after   13 cycles
 SCF Done:  E(RwB97XD) =  -746.610221938     A.U. after   12 cycles
 SCF Done:  E(RwB97XD) =  -746.610226791     A.U. after   11 cycles

 Excitation energies and oscillator strengths:

 Excited State   1:      Singlet-A      1.3920 eV  890.69 nm  f=0.0011  <S**2>=0.000
      59 -> 60         0.69148
 This state for optimization and/or second-order correction.
 Total Energy, E(TD-HF/TD-KS) =  -746.559071616
 Copying the excited state density for this state as the 1-particle RhoCI density.

 Optimization completed.
    -- Stationary point found.

                         Standard orientation:
 ---------------------------------------------------------------------
 Center     Atomic      Atomic             Coordinates (Angstroms)
 Number     Number       Type             X           Y           Z
 ---------------------------------------------------------------------
      1          6           0       -3.876902   -1.400985   -1.454464
      2          1           0       -4.787414   -1.895911   -1.794237
      3          1           0       -3.578718   -0.658672   -2.210728
      4          6           0       -5.409823   -0.153926   -0.015878
      5          1           0       -5.516645    0.716113   -0.679660
      6          7           0       -4.117026   -0.800693   -0.160623
      7          1           0       -3.088493   -2.153602   -1.381679
      8          1           0       -5.539696    0.181306    1.014495
      9          1           0       -6.204619   -0.866169   -0.247064
     10          6           0       -3.054510   -0.197291    0.483754
     11          1           0       -3.324619    0.320545    1.396973
     12          6           0       -1.744861   -0.246713    0.103479
     13          6           0       -0.682422    0.312375    0.834107
     14          1           0       -1.462513   -0.727322   -0.825811
     15          8           0       -0.959212    0.921242    2.030992
     16          6           0        0.686707    0.379798    0.324303
     17          6           0        1.065435    1.539165   -0.473853
     18          6           0        1.609404   -0.615208    0.580967
     19          8           0        0.260449    2.465298   -0.704944
     20          6           0        2.419817    1.566541   -0.984034
     21          6           0        2.909627   -0.541081    0.073136
     22          1           0        1.335758   -1.479445    1.174660
     23          1           0       -0.162177    1.324815    2.379527
     24          1           0        2.706475    2.417237   -1.591434
     25          6           0        3.307788    0.569575   -0.721484
     26          1           0        4.311051    0.625576   -1.122455
     27          8           0        3.716795   -1.558932    0.377484
     28          6           0        5.064753   -1.559121   -0.089033
     29          1           0        5.099788   -1.575155   -1.180639
     30          1           0        5.608577   -0.693365    0.295168
     31          1           0        5.508086   -2.470730    0.302996
 ---------------------------------------------------------------------

 The electronic state is 1-A.
 Alpha  occ. eigenvalues --  -19.32955 -19.26526 -19.16054 -14.51944 -10.43116
 Alpha  occ. eigenvalues --  -10.39007 -10.33367 -10.33149 -10.32853 -10.32552
 Alpha  occ. eigenvalues --  -10.32434 -10.31537 -10.28381 -10.28100 -10.27903
 Alpha  occ. eigenvalues --  -10.26047  -1.21085  -1.16705  -1.10182  -1.07742
 Alpha  occ. eigenvalues --   -0.94751  -0.92692  -0.87052  -0.85093  -0.84031
 Alpha  occ. eigenvalues --   -0.81883  -0.76535  -0.74847  -0.71371  -0.69246
 Alpha  occ. eigenvalues --   -0.67164  -0.63577  -0.63219  -0.61445  -0.58882
 Alpha  occ. eigenvalues --   -0.58457  -0.57463  -0.55932  -0.55413  -0.53335
 Alpha  occ. eigenvalues --   -0.52556  -0.51215  -0.50704  -0.50534  -0.50137
 Alpha  occ. eigenvalues --   -0.49570  -0.48991  -0.48378  -0.47151  -0.44989
 Alpha  occ. eigenvalues --   -0.44858  -0.43687  -0.43091  -0.40224  -0.36013
 Alpha  occ. eigenvalues --   -0.34266  -0.33463  -0.29835  -0.22854
 Alpha virt. eigenvalues --   -0.04649   0.03784   0.04549   0.05111   0.05440
 Alpha virt. eigenvalues --    0.05692   0.05841   0.06956   0.07097   0.07466
 Alpha virt. eigenvalues --    0.07948   0.08269   0.08744   0.09210   0.09548

 Mulliken charges:
               1
     1  C   -0.484007
     2  H    0.214758
     3  H    0.227274
     4  C   -0.389684
     5  H    0.215518
     6  N    0.158194
     7  H    0.196839
     8  H    0.172198
     9  H    0.188825
    10  C   -0.189347
    11  H    0.282947
    12  C   -0.388996
    13  C   -0.279509
    14  H    0.251682
    15  O   -0.130422
    16  C    0.952392
    17  C   -0.235700
    18  C   -0.698375
    19  O   -0.574102
    20  C   -0.333993
    21  C   -0.607848
    22  H    0.242676
    23  H    0.353642
    24  H    0.216039
    25  C    0.419916
    26  H    0.214007
    27  O   -0.185692
    28  C   -0.360563
    29  H    0.173126
    30  H    0.172027
    31  H    0.206179
 Sum of Mulliken charges =   0.00000

 Dipole moment (field-independent basis, Debye):
    X=             -9.9615    Y=             -7.0073    Z=              1.8657  Tot=             12.3213
 Quadrupole moment (field-independent basis, Debye-Ang):
   XX=            -37.6664   YY=           -112.9422   ZZ=            -90.3828
   XY=              3.6292   XZ=              1.9798   YZ=             11.5757

 Normal termination of Gaussian 09 at Fri Jul 28 09:19:16 2017.
