 Gaussian 09, Revision D.01,
 Gaussian 09:  ES64L-G09RevD.01 24-Apr-2013

 ------------------------------------------------
 # wb97xd 6-311++g** td=(root=1,nstates=1) nosymm
 ------------------------------------------------

 ---------------------
 Monomer Excitation H2
 ---------------------
 Symbolic Z-matrix:
 Charge =  0 Multiplicity = 1

                          Input orientation:
 ---------------------------------------------------------------------
 Center     Atomic      Atomic             Coordinates (Angstroms)
 Number     Number       Type             X           Y           Z
 ---------------------------------------------------------------------
      1          6           0        2.462405    2.375572   -1.800125
      2          6           0        1.159578    2.013360   -1.173465
      3          6           0        3.313492    3.292147   -1.139962
      4          6           0        2.888558    1.852738   -3.030336
      5          6           0        0.201041    1.230789   -1.905309
      6          8           0        0.921875    2.418525   -0.014927
      7          6           0        4.525267    3.671279   -1.729410
      8          8           0        3.007768    3.827443    0.046358
      9          1           0        2.133175    3.438542    0.300185
     10          6           0        4.092137    2.216912   -3.601796
     11          1           0        2.264076    1.138734   -3.552176
     12          6           0       -1.000959    0.947165   -1.313357
     13          1           0        0.407522    0.922738   -2.918369
     14          6           0        4.908207    3.139107   -2.943634
     15          1           0        5.144495    4.388729   -1.203865
     16          1           0        4.394380    1.795305   -4.552644
     17          1           0       -1.151386    1.289612   -0.293372
     18          7           0       -2.028940    0.304394   -1.865188
     19          1           0        5.849760    3.443398   -3.387932
     20          6           0       -1.922537   -0.234483   -3.207129
     21          6           0       -3.226450   -0.008097   -1.105437
     22          1           0       -1.645935    0.552887   -3.915959
     23          1           0       -2.886600   -0.644443   -3.507159
     24          1           0       -1.172147   -1.031410   -3.245282
     25          1           0       -3.167451    0.461706   -0.124087
     26          1           0       -3.327256   -1.088156   -0.968495
     27          1           0       -4.111155    0.375575   -1.623476
 ---------------------------------------------------------------------

 SCF Done:  E(RwB97XD) =  -632.152047346     A.U. after   17 cycles

 Excitation energies and oscillator strengths:

 Excited state symmetry could not be determined.
 Excited State   1:      Singlet-?Sym    4.1428 eV  299.28 nm  f=0.5028  <S**2>=0.000
      48 -> 52         0.11643
      51 -> 52         0.66649
 This state for optimization and/or second-order correction.
 Total Energy, E(TD-HF/TD-KS) =  -631.999802436
 Copying the excited state density for this state as the 1-particle RhoCI density.

 Alpha  occ. eigenvalues --  -19.24740 -19.21944 -14.49366 -10.37086 -10.34831
 Alpha  occ. eigenvalues --  -10.34781 -10.34186 -10.33900 -10.29312 -10.29059
 Alpha  occ. eigenvalues --  -10.28941 -10.27827 -10.27597 -10.27275  -1.15742
 Alpha  occ. eigenvalues --   -1.12120  -1.09254  -0.95525  -0.89468  -0.86138
 Alpha  occ. eigenvalues --   -0.85528  -0.83588  -0.80389  -0.73532  -0.70035
 Alpha  occ. eigenvalues --   -0.68702  -0.65203  -0.63189  -0.60196  -0.59037
 Alpha  occ. eigenvalues --   -0.58877  -0.58123  -0.55180  -0.53191  -0.52143
 Alpha  occ. eigenvalues --   -0.51803  -0.51353  -0.51125  -0.50518  -0.49745
 Alpha  occ. eigenvalues --   -0.46917  -0.46693  -0.46381  -0.45214  -0.42095
 Alpha  occ. eigenvalues --   -0.42018  -0.41885  -0.33601  -0.33284  -0.30019
 Alpha  occ. eigenvalues --   -0.28669
 Alpha virt. eigenvalues --    0.00391   0.02614   0.04133   0.04961   0.05657
 Alpha virt. eigenvalues --    0.05871   0.06149   0.06517   0.07623   0.07968
 Alpha virt. eigenvalues --    0.08065   0.08262   0.08464   0.10048   0.10362

 Mulliken charges:
               1
     1  C    2.079994
     2  C   -1.056394
     3  C    0.237234
     4  C   -1.425043
     5  C   -0.251165
     6  O   -0.334132
     7  C   -0.470207
     8  O   -0.300568
     9  H    0.362788
    10  C   -0.688408
    11  H    0.081439
    12  C    0.567775
    13  H    0.108062
    14  C   -0.260886
    15  H    0.227840
    16  H    0.215754
    17  H    0.229133
    18  N    0.123672
    19  H    0.201796
    20  C   -0.442218
    21  C   -0.301526
    22  H    0.184501
    23  H    0.197288
    24  H    0.198321
    25  H    0.150542
    26  H    0.183976
    27  H    0.180433
 Sum of Mulliken charges =   0.00000

 Dipole moment (field-independent basis, Debye):
    X=             -5.0763    Y=             -3.9713    Z=             -3.3029  Tot=              7.2422
 Quadrupole moment (field-independent basis, Debye-Ang):
   XX=            -74.2307   YY=            -97.4162   ZZ=            -72.9489
   XY=             -3.9038   XZ=              0.5917   YZ=              0.4012

 Normal termination of Gaussian 09 at Mon Sep 18 15:11:20 2017.
