 Gaussian 09, Revision D.01,
 Gaussian 09:  ES64L-G09RevD.01 24-Apr-2013

 ------------------------------------------
 #p wb97xd 6-311++G** td=(nstates=4) nosymm
 ------------------------------------------

 -----
 Title
 -----
 Symbolic Z-matrix:
 Charge =  0 Multiplicity = 1

                          Input orientation:
 ---------------------------------------------------------------------
 Center     Atomic      Atomic             Coordinates (Angstroms)
 Number     Number       Type             X           Y           Z
 ---------------------------------------------------------------------
      1          6           0       -0.242207  -15.909153   -0.278636
      2          1           0       -0.252468  -14.829358   -0.089876
      3          1           0       -1.253355  -16.249934   -0.558167
      4          1           0        0.432188  -16.127813   -1.125854
      5          7           0        0.201487  -16.614090    0.916476
      6          6           0        0.261517  -18.068873    0.811160
      7          6           0        0.617094  -15.954241    1.999155
      8          1           0       -0.414204  -18.397450    0.007919
      9          1           0        1.286833  -18.401920    0.563623
     10          1           0       -0.059815  -18.540733    1.749863
     11          1           0        0.583439  -14.863698    1.916064
     12          6           0        1.093579  -16.501219    3.179705
     13          6           0        1.582578  -15.657044    4.219453
     14          1           0        1.130357  -17.580937    3.304760
     15          8           0        1.678535  -14.380108    4.068086
     16          6           0        2.014177  -16.217632    5.523728
     17          1           0        2.344259  -13.947737    5.250035
     18          6           0        2.633227  -15.343501    6.475186
     19          6           0        1.798983  -17.554703    5.905478
     20          8           0        2.814705  -14.044646    6.198487
     21          6           0        3.047574  -15.832084    7.726059
     22          6           0        2.189840  -18.047327    7.143848
     23          1           0        1.269384  -18.232931    5.238097
     24          1           0        3.534352  -15.166230    8.441543
     25          6           0        2.813744  -17.160000    8.017382
     26          1           0        1.969254  -19.069516    7.451958
     27          9           0        3.199892  -17.627191    9.253681
     28          1           0        1.241451  -14.781049   -6.056648
     29          6           0        1.917182  -15.109626   -5.253396
     30          1           0        2.942488  -14.776579   -5.500933
     31          1           0        1.595839  -14.637766   -4.314693
     32          7           0        1.857142  -16.564408   -5.148080
     33          6           0        1.413453  -17.269346   -6.343196
     34          6           0        2.272759  -17.224258   -4.065401
     35          1           0        1.403192  -18.349141   -6.154426
     36          1           0        0.402315  -16.928565   -6.622727
     37          1           0        2.087858  -17.050686   -7.190404
     38          1           0        2.239104  -18.314801   -4.148492
     39          6           0        2.749244  -16.677280   -2.884851
     40          6           0        3.238233  -17.521455   -1.845103
     41          1           0        2.786011  -15.597562   -2.759796
     42          8           0        3.334190  -18.798391   -1.996470
     43          6           0        3.669842  -16.960867   -0.540828
     44          1           0        3.999924  -19.230762   -0.814521
     45          6           0        3.454638  -15.623796   -0.159088
     46          6           0        4.288887  -17.834998    0.410626
     47          8           0        4.470365  -19.133853    0.133937
     48          1           0        2.925038  -14.945568   -0.826469
     49          6           0        3.845500  -15.131172    1.079298
     50          6           0        4.703234  -17.346415    1.661499
     51          1           0        3.624914  -14.108983    1.387398
     52          6           0        4.469404  -16.018499    1.952822
     53          1           0        5.190022  -18.012269    2.376983
     54          9           0        4.855562  -15.551308    3.189121
 ---------------------------------------------------------------------

 SCF Done:  E(RwB97XD) =  -1462.79036164     A.U. after   18 cycles

 Excitation energies and oscillator strengths:

 Excited state symmetry could not be determined.
 Excited State   1:      Singlet-?Sym    3.9032 eV  317.64 nm  f=0.0539  <S**2>=0.000
     108 ->111        -0.28958
     109 ->111         0.48252
     110 ->111         0.16193
     110 ->112        -0.34080
 This state for optimization and/or second-order correction.
 Total Energy, E(TD-HF/TD-KS) =  -1462.64692019
 Copying the excited state density for this state as the 1-particle RhoCI density.

 Excited state symmetry could not be determined.
 Excited State   2:      Singlet-?Sym    3.9488 eV  313.98 nm  f=1.0479  <S**2>=0.000
     108 ->111        -0.18743
     109 ->111         0.29033
     110 ->112         0.58233

 Excited state symmetry could not be determined.
 Excited State   3:      Singlet-?Sym    4.2520 eV  291.59 nm  f=0.0048  <S**2>=0.000
     103 ->111        -0.67762

 Excited state symmetry could not be determined.
 Excited State   4:      Singlet-?Sym    4.2739 eV  290.09 nm  f=0.0062  <S**2>=0.000
     105 ->112        -0.67270

 Alpha  occ. eigenvalues --  -24.81002 -24.80338 -19.25185 -19.24241 -19.23348
 Alpha  occ. eigenvalues --  -19.22222 -14.51881 -14.49780 -10.39479 -10.38554
 Alpha  occ. eigenvalues --  -10.37708 -10.37415 -10.37274 -10.36929 -10.36227
 Alpha  occ. eigenvalues --  -10.36172 -10.35586 -10.35244 -10.34619 -10.33813
 Alpha  occ. eigenvalues --  -10.31757 -10.30780 -10.30130 -10.29897 -10.29595
 Alpha  occ. eigenvalues --  -10.29255 -10.28999 -10.28300 -10.27852 -10.27639
 Alpha  occ. eigenvalues --   -1.31507  -1.30907  -1.16161  -1.14227  -1.12198
 Alpha  occ. eigenvalues --   -1.11125  -1.10224  -1.09022  -0.97090  -0.95552
 Alpha  occ. eigenvalues --   -0.91529  -0.89432  -0.87685  -0.87044  -0.86011
 Alpha  occ. eigenvalues --   -0.85383  -0.84965  -0.83865  -0.82332  -0.80401
 Alpha  occ. eigenvalues --   -0.74780  -0.73196  -0.72185  -0.70632  -0.70527
 Alpha  occ. eigenvalues --   -0.68928  -0.67156  -0.65106  -0.64679  -0.63351
 Alpha  occ. eigenvalues --   -0.62794  -0.62193  -0.61324  -0.60608  -0.60215
 Alpha  occ. eigenvalues --   -0.59706  -0.58733  -0.58418  -0.58300  -0.56884
 Alpha  occ. eigenvalues --   -0.55509  -0.55220  -0.54373  -0.53849  -0.53799
 Alpha  occ. eigenvalues --   -0.53620  -0.53394  -0.53220  -0.52236  -0.52134
 Alpha  occ. eigenvalues --   -0.51681  -0.51494  -0.51456  -0.51339  -0.50618
 Alpha  occ. eigenvalues --   -0.50092  -0.49760  -0.49493  -0.49339  -0.48490
 Alpha  occ. eigenvalues --   -0.48329  -0.47637  -0.46452  -0.46037  -0.45742
 Alpha  occ. eigenvalues --   -0.44788  -0.43941  -0.43733  -0.42717  -0.42152
 Alpha  occ. eigenvalues --   -0.41380  -0.40852  -0.35447  -0.34218  -0.33523
 Alpha  occ. eigenvalues --   -0.32662  -0.32077  -0.30202  -0.29856  -0.28056
 Alpha virt. eigenvalues --   -0.01887   0.00118   0.01240   0.02936   0.03186
 Alpha virt. eigenvalues --    0.04121   0.04267   0.04649   0.05225   0.05588
 Alpha virt. eigenvalues --    0.05891   0.06230   0.06360   0.06804   0.07075

 Mulliken charges:
               1
     1  C   -0.413990
     2  H    0.131254
     3  H    0.201263
     4  H    0.258511
     5  N    0.227132
     6  C   -0.401606
     7  C    0.275880
     8  H    0.174310
     9  H    0.214012
    10  H    0.199149
    11  H    0.254211
    12  C   -0.240497
    13  C   -0.504161
    14  H    0.074934
    15  O   -0.342541
    16  C    1.308881
    17  H    0.399244
    18  C   -0.115730
    19  C   -0.529092
    20  O   -0.311481
    21  C   -0.172856
    22  C   -0.494252
    23  H    0.152996
    24  H    0.262957
    25  C   -0.588514
    26  H    0.243194
    27  F   -0.167226
    28  H    0.195284
    29  C   -0.419831
    30  H    0.217953
    31  H    0.170877
    32  N    0.214668
    33  C   -0.301045
    34  C    0.279248
    35  H    0.145418
    36  H    0.179236
    37  H    0.196850
    38  H    0.237289
    39  C   -0.554113
    40  C   -0.860237
    41  H    0.132469
    42  O   -0.325982
    43  C    0.773612
    44  H    0.380564
    45  C   -0.391678
    46  C    0.109834
    47  O   -0.293265
    48  H    0.114835
    49  C   -0.206885
    50  C   -0.062284
    51  H    0.291258
    52  C   -0.526057
    53  H    0.295317
    54  F   -0.089319
 Sum of Mulliken charges =   0.00000

 Dipole moment (field-independent basis, Debye):
    X=             -6.7034    Y=              0.1274    Z=            -15.8983  Tot=             17.2542
 Quadrupole moment (field-independent basis, Debye-Ang):
   XX=           -209.9612   YY=           -189.0475   ZZ=           -192.8243
   XY=            118.7197   XZ=            -35.2767   YZ=            240.6009

 Normal termination of Gaussian 09 at Fri Nov  3 01:10:13 2017.
