 Gaussian 09, Revision D.01,
 Gaussian 09:  ES64L-G09RevD.01 24-Apr-2013

 ------------------------------------------
 #p wb97xd 6-311++G** td=(nstates=4) nosymm
 ------------------------------------------

 -----
 Title
 -----
 Symbolic Z-matrix:
 Charge =  0 Multiplicity = 1

                          Input orientation:
 ---------------------------------------------------------------------
 Center     Atomic      Atomic             Coordinates (Angstroms)
 Number     Number       Type             X           Y           Z
 ---------------------------------------------------------------------
      1          6           0        0.711266  -10.352067   -4.455065
      2          6           0        0.524838  -11.682836   -4.135836
      3          9           0        0.400627   -9.952529   -5.735743
      4          6           0        1.187527   -9.399635   -3.554250
      5          1           0        0.130037  -12.394456   -4.865141
      6          6           0        0.804151  -12.095430   -2.821006
      7          6           0        1.478955   -9.829641   -2.265862
      8          1           0        1.306509   -8.355346   -3.847943
      9          8           0        0.587417  -13.377633   -2.483228
     10          6           0        1.302394  -11.164375   -1.854181
     11          1           0        1.838291   -9.085565   -1.554816
     12          1           0        0.843731  -13.385183   -1.443578
     13          6           0        1.566194  -11.642445   -0.477235
     14          8           0        1.294958  -12.881802   -0.216549
     15          6           0        2.106870  -10.782651    0.521136
     16          6           0        2.324617  -11.247330    1.805567
     17          1           0        2.356875   -9.756222    0.265331
     18          1           0        2.065237  -12.284592    2.038284
     19          7           0        2.816311  -10.546919    2.828701
     20          6           0        3.173727   -9.143661    2.684511
     21          6           0        3.066717  -11.165084    4.124274
     22          1           0        4.016486   -9.031414    1.982362
     23          1           0        3.462633   -8.746043    3.666542
     24          1           0        2.313741   -8.568269    2.305379
     25          1           0        2.730560  -12.206731    4.094450
     26          1           0        2.524709  -10.616978    4.914416
     27          1           0        4.144656  -11.130952    4.359239
 ---------------------------------------------------------------------

 SCF Done:  E(RwB97XD) =  -731.387928062     A.U. after   17 cycles

 Excitation energies and oscillator strengths:

 Excited state symmetry could not be determined.
 Excited State   1:      Singlet-?Sym    3.9428 eV  314.46 nm  f=0.5648  <S**2>=0.000
      55 -> 56         0.68253
      55 -> 60        -0.10144
 This state for optimization and/or second-order correction.
 Total Energy, E(TD-HF/TD-KS) =  -731.243032697
 Copying the excited state density for this state as the 1-particle RhoCI density.

 Excited state symmetry could not be determined.
 Excited State   2:      Singlet-?Sym    4.2307 eV  293.06 nm  f=0.0003  <S**2>=0.000
      52 -> 56         0.68595

 Excited state symmetry could not be determined.
 Excited State   3:      Singlet-?Sym    4.5342 eV  273.44 nm  f=0.2054  <S**2>=0.000
      54 -> 56         0.67248
      55 -> 60         0.14196

 Excited state symmetry could not be determined.
 Excited State   4:      Singlet-?Sym    5.1878 eV  238.99 nm  f=0.0340  <S**2>=0.000
      53 -> 56         0.56987
      54 -> 60        -0.17450
      55 -> 60         0.25055
      55 -> 61         0.12063
      55 -> 65         0.14667

 Alpha  occ. eigenvalues --  -24.81192 -19.23997 -19.23194 -14.50686 -10.38477
 Alpha  occ. eigenvalues --  -10.38273 -10.36418 -10.36169 -10.35315 -10.35081
 Alpha  occ. eigenvalues --  -10.31162 -10.29995 -10.29321 -10.28776 -10.28734
 Alpha  occ. eigenvalues --   -1.31739  -1.14940  -1.10893  -1.10096  -0.96478
 Alpha  occ. eigenvalues --   -0.90444  -0.86972  -0.86187  -0.84772  -0.81331
 Alpha  occ. eigenvalues --   -0.74141  -0.71453  -0.69826  -0.66123  -0.63719
 Alpha  occ. eigenvalues --   -0.63037  -0.60668  -0.59540  -0.59346  -0.57784
 Alpha  occ. eigenvalues --   -0.55211  -0.54676  -0.53122  -0.52645  -0.52589
 Alpha  occ. eigenvalues --   -0.52307  -0.51061  -0.50560  -0.50271  -0.49202
 Alpha  occ. eigenvalues --   -0.47514  -0.46542  -0.45672  -0.43011  -0.42609
 Alpha  occ. eigenvalues --   -0.41713  -0.34377  -0.33604  -0.31173  -0.29099
 Alpha virt. eigenvalues --   -0.00938   0.02136   0.03750   0.04911   0.05062
 Alpha virt. eigenvalues --    0.05416   0.06131   0.06659   0.07362   0.07528
 Alpha virt. eigenvalues --    0.07661   0.07982   0.08930   0.10206   0.10886

 Mulliken charges:
               1
     1  C   -0.650385
     2  C   -0.299330
     3  F   -0.165151
     4  C   -0.462135
     5  H    0.261100
     6  C    0.266637
     7  C   -1.542204
     8  H    0.252062
     9  O   -0.364701
    10  C    2.072983
    11  H    0.081312
    12  H    0.433736
    13  C   -0.500456
    14  O   -0.382308
    15  C   -0.478430
    16  C    0.620646
    17  H    0.115724
    18  H    0.241216
    19  N    0.143459
    20  C   -0.445832
    21  C   -0.307709
    22  H    0.198016
    23  H    0.201461
    24  H    0.190027
    25  H    0.143140
    26  H    0.183290
    27  H    0.193831
 Sum of Mulliken charges =   0.00000

 Dipole moment (field-independent basis, Debye):
    X=              3.4363    Y=              4.2757    Z=              8.0459  Tot=              9.7379
 Quadrupole moment (field-independent basis, Debye-Ang):
   XX=            -77.7598   YY=           -184.3045   ZZ=            -86.0243
   XY=            -29.5635   XZ=             16.7892   YZ=            -88.7934

 Normal termination of Gaussian 09 at Fri Nov  3 00:22:59 2017.
