 Gaussian 09, Revision D.01,
 Gaussian 09:  ES64L-G09RevD.01 24-Apr-2013

 ------------------------------------------
 #p wb97xd 6-311++G** td=(nstates=4) nosymm
 ------------------------------------------

 -----
 Title
 -----
 Symbolic Z-matrix:
 Charge =  0 Multiplicity = 1

                          Input orientation:
 ---------------------------------------------------------------------
 Center     Atomic      Atomic             Coordinates (Angstroms)
 Number     Number       Type             X           Y           Z
 ---------------------------------------------------------------------
      1          6           0        0.711266  -10.352067   -4.455065
      2          6           0        0.524838  -11.682836   -4.135836
      3          9           0        0.400627   -9.952529   -5.735743
      4          6           0        1.187527   -9.399635   -3.554250
      5          1           0        0.130037  -12.394456   -4.865141
      6          6           0        0.804151  -12.095430   -2.821006
      7          6           0        1.478955   -9.829641   -2.265862
      8          1           0        1.306509   -8.355346   -3.847943
      9          8           0        0.587417  -13.377633   -2.483228
     10          6           0        1.302394  -11.164375   -1.854181
     11          1           0        1.838291   -9.085565   -1.554816
     12          1           0        0.843731  -13.385183   -1.443578
     13          6           0        1.566194  -11.642445   -0.477235
     14          8           0        1.294958  -12.881802   -0.216549
     15          6           0        2.106870  -10.782651    0.521136
     16          6           0        2.324617  -11.247330    1.805567
     17          1           0        2.356875   -9.756222    0.265331
     18          1           0        2.065237  -12.284592    2.038284
     19          7           0        2.816311  -10.546919    2.828701
     20          6           0        3.173727   -9.143661    2.684511
     21          6           0        3.066717  -11.165084    4.124274
     22          1           0        4.016486   -9.031414    1.982362
     23          1           0        3.462633   -8.746043    3.666542
     24          1           0        2.313741   -8.568269    2.305379
     25          1           0        2.730560  -12.206731    4.094450
     26          1           0        2.524709  -10.616978    4.914416
     27          1           0        4.144656  -11.130952    4.359239
     28          1           0       -2.524714  -11.502021   -4.914422
     29          6           0       -3.066723  -10.953915   -4.124270
     30          1           0       -2.730555   -9.912268   -4.094456
     31          1           0       -4.144651  -10.988047   -4.359245
     32          7           0       -2.816307  -11.572080   -2.828697
     33          6           0       -3.173733  -12.975338   -2.684507
     34          6           0       -2.324622  -10.871668   -1.805573
     35          1           0       -4.016491  -13.087585   -1.982358
     36          1           0       -3.462628  -13.372956   -3.666538
     37          1           0       -2.313736  -13.550730   -2.305385
     38          1           0       -2.065242   -9.834406   -2.038281
     39          6           0       -2.106865  -11.336348   -0.521142
     40          1           0       -2.356870  -12.362777   -0.265337
     41          6           0       -1.566199  -10.476554    0.477239
     42          6           0       -1.302389  -10.954624    1.854185
     43          8           0       -1.294964   -9.237197    0.216543
     44          6           0       -1.478960  -12.289358    2.265866
     45          6           0       -0.804146  -10.023569    2.821000
     46          1           0       -0.843736   -8.733816    1.443572
     47          1           0       -1.838296  -13.033434    1.554810
     48          6           0       -1.187522  -12.719364    3.554244
     49          6           0       -0.524843  -10.436163    4.135830
     50          8           0       -0.587422   -8.741366    2.483232
     51          1           0       -1.306504  -13.763653    3.847937
     52          6           0       -0.711271  -11.766932    4.455069
     53          1           0       -0.130043   -9.724543    4.865135
     54          9           0       -0.400633  -12.166470    5.735747
 ---------------------------------------------------------------------

 SCF Done:  E(RwB97XD) =  -1462.80835785     A.U. after   16 cycles

 Excitation energies and oscillator strengths:

 Excited state symmetry could not be determined.
 Excited State   1:      Singlet-?Sym    3.7638 eV  329.41 nm  f=0.0000  <S**2>=0.000
     109 ->112        -0.35727
     110 ->111         0.58755
 This state for optimization and/or second-order correction.
 Total Energy, E(TD-HF/TD-KS) =  -1462.67004116
 Copying the excited state density for this state as the 1-particle RhoCI density.

 Excited state symmetry could not be determined.
 Excited State   2:      Singlet-?Sym    4.0783 eV  304.01 nm  f=1.0636  <S**2>=0.000
     109 ->111         0.50003
     110 ->112        -0.45108

 Excited state symmetry could not be determined.
 Excited State   3:      Singlet-?Sym    4.2973 eV  288.52 nm  f=0.0000  <S**2>=0.000
     103 ->112         0.39758
     104 ->111        -0.51786
     105 ->112         0.17939

 Excited state symmetry could not be determined.
 Excited State   4:      Singlet-?Sym    4.2976 eV  288.50 nm  f=0.0023  <S**2>=0.000
     103 ->111        -0.47563
     104 ->112         0.42913
     105 ->111        -0.22230

 Alpha  occ. eigenvalues --  -24.81945 -24.81945 -19.24577 -19.24577 -19.22901
 Alpha  occ. eigenvalues --  -19.22900 -14.49694 -14.49694 -10.38735 -10.38735
 Alpha  occ. eigenvalues --  -10.38057 -10.38057 -10.36545 -10.36545 -10.35517
 Alpha  occ. eigenvalues --  -10.35517 -10.34011 -10.34011 -10.33500 -10.33500
 Alpha  occ. eigenvalues --  -10.31214 -10.31214 -10.30122 -10.30122 -10.29576
 Alpha  occ. eigenvalues --  -10.29576 -10.29397 -10.29397 -10.27834 -10.27834
 Alpha  occ. eigenvalues --   -1.32497  -1.32497  -1.15200  -1.15162  -1.10866
 Alpha  occ. eigenvalues --   -1.10842  -1.08981  -1.08966  -0.96759  -0.96755
 Alpha  occ. eigenvalues --   -0.89712  -0.89606  -0.87026  -0.86870  -0.85049
 Alpha  occ. eigenvalues --   -0.85035  -0.84781  -0.84774  -0.80556  -0.80509
 Alpha  occ. eigenvalues --   -0.74194  -0.74182  -0.71578  -0.71547  -0.69510
 Alpha  occ. eigenvalues --   -0.69440  -0.65402  -0.65386  -0.63525  -0.63492
 Alpha  occ. eigenvalues --   -0.62950  -0.62887  -0.60627  -0.60589  -0.58894
 Alpha  occ. eigenvalues --   -0.58808  -0.58396  -0.58319  -0.57639  -0.57597
 Alpha  occ. eigenvalues --   -0.55909  -0.55908  -0.54592  -0.54568  -0.53344
 Alpha  occ. eigenvalues --   -0.53238  -0.52276  -0.52202  -0.52023  -0.51453
 Alpha  occ. eigenvalues --   -0.51388  -0.51197  -0.50993  -0.50552  -0.50514
 Alpha  occ. eigenvalues --   -0.50500  -0.49348  -0.49343  -0.49153  -0.49088
 Alpha  occ. eigenvalues --   -0.46817  -0.46737  -0.46535  -0.46314  -0.46091
 Alpha  occ. eigenvalues --   -0.46090  -0.43283  -0.43213  -0.42193  -0.42033
 Alpha  occ. eigenvalues --   -0.41583  -0.41577  -0.34377  -0.34337  -0.34030
 Alpha  occ. eigenvalues --   -0.33679  -0.31094  -0.30916  -0.29129  -0.28457
 Alpha virt. eigenvalues --   -0.01048  -0.00156   0.03316   0.03481   0.04423
 Alpha virt. eigenvalues --    0.04718   0.05163   0.05248   0.05417   0.05798
 Alpha virt. eigenvalues --    0.06074   0.06531   0.06969   0.07213   0.07367

 Mulliken charges:
               1
     1  C   -0.545603
     2  C   -0.084332
     3  F   -0.141233
     4  C   -0.052472
     5  H    0.273121
     6  C   -0.272955
     7  C   -0.138891
     8  H    0.252525
     9  O   -0.270015
    10  C    0.347236
    11  H    0.169981
    12  H    0.394302
    13  C   -0.015068
    14  O   -0.330719
    15  C   -0.500528
    16  C   -0.110072
    17  H    0.187303
    18  H    0.228824
    19  N    0.274289
    20  C   -0.451885
    21  C   -0.370717
    22  H    0.193789
    23  H    0.193519
    24  H    0.232072
    25  H    0.140404
    26  H    0.186417
    27  H    0.210711
    28  H    0.186417
    29  C   -0.370725
    30  H    0.140406
    31  H    0.210714
    32  N    0.274302
    33  C   -0.451883
    34  C   -0.110077
    35  H    0.193790
    36  H    0.193519
    37  H    0.232072
    38  H    0.228825
    39  C   -0.500529
    40  H    0.187298
    41  C   -0.015094
    42  C    0.347246
    43  O   -0.330718
    44  C   -0.138895
    45  C   -0.272948
    46  H    0.394301
    47  H    0.169982
    48  C   -0.052463
    49  C   -0.084338
    50  O   -0.270015
    51  H    0.252526
    52  C   -0.545601
    53  H    0.273120
    54  F   -0.141234
 Sum of Mulliken charges =   0.00000

 Dipole moment (field-independent basis, Debye):
    X=              0.0000    Y=              0.0000    Z=             -0.0001  Tot=              0.0001
 Quadrupole moment (field-independent basis, Debye-Ang):
   XX=           -155.4850   YY=           -179.5284   ZZ=           -177.4253
   XY=             17.8925   XZ=             33.4251   YZ=             -0.2392

 Normal termination of Gaussian 09 at Fri Nov  3 03:54:28 2017.
