 Gaussian 09, Revision D.01,
 Gaussian 09:  ES64L-G09RevD.01 24-Apr-2013

 ------------------------------------------
 #p wb97xd 6-311++G** td=(nstates=4) nosymm
 ------------------------------------------

 -----
 Title
 -----
 Symbolic Z-matrix:
 Charge =  0 Multiplicity = 1

                          Input orientation:
 ---------------------------------------------------------------------
 Center     Atomic      Atomic             Coordinates (Angstroms)
 Number     Number       Type             X           Y           Z
 ---------------------------------------------------------------------
      1          1           0        1.241451  -14.781049   -6.056648
      2          6           0        1.917182  -15.109626   -5.253396
      3          1           0        2.942488  -14.776579   -5.500933
      4          1           0        1.595839  -14.637766   -4.314693
      5          7           0        1.857142  -16.564408   -5.148080
      6          6           0        1.413453  -17.269346   -6.343196
      7          6           0        2.272759  -17.224258   -4.065401
      8          1           0        1.403192  -18.349141   -6.154426
      9          1           0        0.402315  -16.928565   -6.622727
     10          1           0        2.087858  -17.050686   -7.190404
     11          1           0        2.239104  -18.314801   -4.148492
     12          6           0        2.749244  -16.677280   -2.884851
     13          6           0        3.238233  -17.521455   -1.845103
     14          1           0        2.786011  -15.597562   -2.759796
     15          8           0        3.334190  -18.798391   -1.996470
     16          6           0        3.669842  -16.960867   -0.540828
     17          1           0        3.999924  -19.230762   -0.814521
     18          6           0        3.454638  -15.623796   -0.159088
     19          6           0        4.288887  -17.834998    0.410626
     20          8           0        4.470365  -19.133853    0.133937
     21          1           0        2.925038  -14.945568   -0.826469
     22          6           0        3.845500  -15.131172    1.079298
     23          6           0        4.703234  -17.346415    1.661499
     24          1           0        3.624914  -14.108983    1.387398
     25          6           0        4.469404  -16.018499    1.952822
     26          1           0        5.190022  -18.012269    2.376983
     27          9           0        4.855562  -15.551308    3.189121
 ---------------------------------------------------------------------

 SCF Done:  E(RwB97XD) =  -731.387912553     A.U. after   17 cycles

 Excitation energies and oscillator strengths:

 Excited state symmetry could not be determined.
 Excited State   1:      Singlet-?Sym    3.9736 eV  312.02 nm  f=0.5717  <S**2>=0.000
      55 -> 56         0.67975
 This state for optimization and/or second-order correction.
 Total Energy, E(TD-HF/TD-KS) =  -731.241885536
 Copying the excited state density for this state as the 1-particle RhoCI density.

 Excited state symmetry could not be determined.
 Excited State   2:      Singlet-?Sym    4.2529 eV  291.53 nm  f=0.0059  <S**2>=0.000
      52 -> 56         0.67483
      53 -> 56         0.10836

 Excited state symmetry could not be determined.
 Excited State   3:      Singlet-?Sym    4.5474 eV  272.65 nm  f=0.2020  <S**2>=0.000
      54 -> 56         0.67083

 Excited state symmetry could not be determined.
 Excited State   4:      Singlet-?Sym    5.1937 eV  238.72 nm  f=0.0302  <S**2>=0.000
      53 -> 56         0.55453
      54 -> 59        -0.11365
      54 -> 60         0.10782
      54 -> 61        -0.11153
      55 -> 59        -0.15266
      55 -> 60         0.15111
      55 -> 61        -0.18323
      55 -> 64        -0.10813

 Alpha  occ. eigenvalues --  -24.81115 -19.24248 -19.23108 -14.50761 -10.38371
 Alpha  occ. eigenvalues --  -10.38142 -10.36524 -10.36156 -10.35279 -10.35176
 Alpha  occ. eigenvalues --  -10.31050 -10.29924 -10.29185 -10.28718 -10.28698
 Alpha  occ. eigenvalues --   -1.31680  -1.15143  -1.11136  -1.10035  -0.96460
 Alpha  occ. eigenvalues --   -0.90406  -0.86929  -0.86042  -0.84763  -0.81338
 Alpha  occ. eigenvalues --   -0.74095  -0.71446  -0.69848  -0.66115  -0.63702
 Alpha  occ. eigenvalues --   -0.63039  -0.60618  -0.59581  -0.59235  -0.57768
 Alpha  occ. eigenvalues --   -0.55172  -0.54720  -0.53119  -0.52671  -0.52443
 Alpha  occ. eigenvalues --   -0.52310  -0.51067  -0.50488  -0.50212  -0.49213
 Alpha  occ. eigenvalues --   -0.47426  -0.46681  -0.45628  -0.43075  -0.42752
 Alpha  occ. eigenvalues --   -0.41749  -0.34407  -0.33522  -0.31100  -0.29093
 Alpha virt. eigenvalues --   -0.00801   0.02172   0.03808   0.04956   0.05061
 Alpha virt. eigenvalues --    0.05333   0.06191   0.06654   0.07375   0.07478
 Alpha virt. eigenvalues --    0.07700   0.08064   0.09166   0.10280   0.10663

 Mulliken charges:
               1
     1  H    0.176299
     2  C   -0.439730
     3  H    0.217300
     4  H    0.184634
     5  N    0.147898
     6  C   -0.334419
     7  C    0.090026
     8  H    0.144402
     9  H    0.181961
    10  H    0.189050
    11  H    0.233777
    12  C   -0.015204
    13  C   -0.579530
    14  H    0.079813
    15  O   -0.365340
    16  C    1.834928
    17  H    0.426127
    18  C   -1.189079
    19  C    0.226521
    20  O   -0.357860
    21  H    0.099362
    22  C   -0.418564
    23  C   -0.342678
    24  H    0.247534
    25  C   -0.530395
    26  H    0.261844
    27  F   -0.168675
 Sum of Mulliken charges =   0.00000

 Dipole moment (field-independent basis, Debye):
    X=             -3.7717    Y=              3.8238    Z=             -8.0738  Tot=              9.6971
 Quadrupole moment (field-independent basis, Debye-Ang):
   XX=           -113.3533   YY=           -219.1480   ZZ=            -47.5737
   XY=             75.2244   XZ=            -13.7856   YZ=            127.1897

 Normal termination of Gaussian 09 at Thu Nov  2 22:10:19 2017.
