 Gaussian 09, Revision D.01,
 Gaussian 09:  ES64L-G09RevD.01 24-Apr-2013

 ------------------------------------------
 #p wb97xd 6-311++G** td=(nstates=4) nosymm
 ------------------------------------------

 -----
 Title
 -----
 Symbolic Z-matrix:
 Charge =  0 Multiplicity = 1

                          Input orientation:
 ---------------------------------------------------------------------
 Center     Atomic      Atomic             Coordinates (Angstroms)
 Number     Number       Type             X           Y           Z
 ---------------------------------------------------------------------
      1          1           0       -2.524714  -11.502021   -4.914422
      2          6           0       -3.066723  -10.953915   -4.124270
      3          1           0       -2.730555   -9.912268   -4.094456
      4          1           0       -4.144651  -10.988047   -4.359245
      5          7           0       -2.816307  -11.572080   -2.828697
      6          6           0       -3.173733  -12.975338   -2.684507
      7          6           0       -2.324622  -10.871668   -1.805573
      8          1           0       -4.016491  -13.087585   -1.982358
      9          1           0       -3.462628  -13.372956   -3.666538
     10          1           0       -2.313736  -13.550730   -2.305385
     11          1           0       -2.065242   -9.834406   -2.038281
     12          6           0       -2.106865  -11.336348   -0.521142
     13          1           0       -2.356870  -12.362777   -0.265337
     14          6           0       -1.566199  -10.476554    0.477239
     15          6           0       -1.302389  -10.954624    1.854185
     16          8           0       -1.294964   -9.237197    0.216543
     17          6           0       -1.478960  -12.289358    2.265866
     18          6           0       -0.804146  -10.023569    2.821000
     19          1           0       -0.843736   -8.733816    1.443572
     20          1           0       -1.838296  -13.033434    1.554810
     21          6           0       -1.187522  -12.719364    3.554244
     22          6           0       -0.524843  -10.436163    4.135830
     23          8           0       -0.587422   -8.741366    2.483232
     24          1           0       -1.306504  -13.763653    3.847937
     25          6           0       -0.711271  -11.766932    4.455069
     26          1           0       -0.130043   -9.724543    4.865135
     27          9           0       -0.400633  -12.166470    5.735747
 ---------------------------------------------------------------------

 SCF Done:  E(RwB97XD) =  -731.387927934     A.U. after   17 cycles

 Excitation energies and oscillator strengths:

 Excited state symmetry could not be determined.
 Excited State   1:      Singlet-?Sym    3.9428 eV  314.46 nm  f=0.5648  <S**2>=0.000
      55 -> 56         0.68253
      55 -> 60        -0.10143
 This state for optimization and/or second-order correction.
 Total Energy, E(TD-HF/TD-KS) =  -731.243032389
 Copying the excited state density for this state as the 1-particle RhoCI density.

 Excited state symmetry could not be determined.
 Excited State   2:      Singlet-?Sym    4.2307 eV  293.06 nm  f=0.0003  <S**2>=0.000
      52 -> 56         0.68595

 Excited state symmetry could not be determined.
 Excited State   3:      Singlet-?Sym    4.5342 eV  273.44 nm  f=0.2054  <S**2>=0.000
      54 -> 56         0.67248
      55 -> 60         0.14196

 Excited state symmetry could not be determined.
 Excited State   4:      Singlet-?Sym    5.1878 eV  238.99 nm  f=0.0340  <S**2>=0.000
      53 -> 56         0.56988
      54 -> 60         0.17450
      55 -> 60        -0.25053
      55 -> 61         0.12064
      55 -> 65        -0.14666

 Alpha  occ. eigenvalues --  -24.81192 -19.23997 -19.23194 -14.50687 -10.38477
 Alpha  occ. eigenvalues --  -10.38273 -10.36418 -10.36169 -10.35316 -10.35081
 Alpha  occ. eigenvalues --  -10.31162 -10.29995 -10.29321 -10.28776 -10.28734
 Alpha  occ. eigenvalues --   -1.31739  -1.14940  -1.10893  -1.10096  -0.96478
 Alpha  occ. eigenvalues --   -0.90444  -0.86972  -0.86187  -0.84772  -0.81331
 Alpha  occ. eigenvalues --   -0.74141  -0.71453  -0.69826  -0.66123  -0.63719
 Alpha  occ. eigenvalues --   -0.63037  -0.60668  -0.59541  -0.59346  -0.57784
 Alpha  occ. eigenvalues --   -0.55211  -0.54676  -0.53122  -0.52645  -0.52589
 Alpha  occ. eigenvalues --   -0.52307  -0.51061  -0.50559  -0.50271  -0.49202
 Alpha  occ. eigenvalues --   -0.47513  -0.46542  -0.45672  -0.43011  -0.42610
 Alpha  occ. eigenvalues --   -0.41713  -0.34377  -0.33603  -0.31173  -0.29098
 Alpha virt. eigenvalues --   -0.00938   0.02136   0.03750   0.04911   0.05062
 Alpha virt. eigenvalues --    0.05416   0.06131   0.06659   0.07362   0.07528
 Alpha virt. eigenvalues --    0.07661   0.07982   0.08930   0.10206   0.10886

 Mulliken charges:
               1
     1  H    0.183289
     2  C   -0.307712
     3  H    0.143142
     4  H    0.193834
     5  N    0.143465
     6  C   -0.445833
     7  C    0.620673
     8  H    0.198015
     9  H    0.201461
    10  H    0.190028
    11  H    0.241217
    12  C   -0.478438
    13  H    0.115727
    14  C   -0.500375
    15  C    2.073015
    16  O   -0.382309
    17  C   -1.542343
    18  C    0.266613
    19  H    0.433733
    20  H    0.081308
    21  C   -0.462075
    22  C   -0.299308
    23  O   -0.364701
    24  H    0.252063
    25  C   -0.650440
    26  H    0.261099
    27  F   -0.165150
 Sum of Mulliken charges =   0.00000

 Dipole moment (field-independent basis, Debye):
    X=             -3.4363    Y=             -4.2757    Z=             -8.0460  Tot=              9.7380
 Quadrupole moment (field-independent basis, Debye-Ang):
   XX=            -77.7595   YY=              4.8447   ZZ=            -86.0241
   XY=             46.4437   XZ=             16.7895   YZ=             89.1753

 Normal termination of Gaussian 09 at Fri Nov  3 00:26:16 2017.
