 Gaussian 09, Revision D.01,
 Gaussian 09:  ES64L-G09RevD.01 24-Apr-2013

 ------------------------------------------
 #p wb97xd 6-311++G** td=(nstates=4) nosymm
 ------------------------------------------

 -----
 Title
 -----
 Symbolic Z-matrix:
 Charge =  0 Multiplicity = 1

                          Input orientation:
 ---------------------------------------------------------------------
 Center     Atomic      Atomic             Coordinates (Angstroms)
 Number     Number       Type             X           Y           Z
 ---------------------------------------------------------------------
      1          6           0        0.711266  -10.352067   -4.455065
      2          6           0        0.524838  -11.682836   -4.135836
      3          9           0        0.400627   -9.952529   -5.735743
      4          6           0        1.187527   -9.399635   -3.554250
      5          1           0        0.130037  -12.394456   -4.865141
      6          6           0        0.804151  -12.095430   -2.821006
      7          6           0        1.478955   -9.829641   -2.265862
      8          1           0        1.306509   -8.355346   -3.847943
      9          8           0        0.587417  -13.377633   -2.483228
     10          6           0        1.302394  -11.164375   -1.854181
     11          1           0        1.838291   -9.085565   -1.554816
     12          1           0        0.843731  -13.385183   -1.443578
     13          6           0        1.566194  -11.642445   -0.477235
     14          8           0        1.294958  -12.881802   -0.216549
     15          6           0        2.106870  -10.782651    0.521136
     16          6           0        2.324617  -11.247330    1.805567
     17          1           0        2.356875   -9.756222    0.265331
     18          1           0        2.065237  -12.284592    2.038284
     19          7           0        2.816311  -10.546919    2.828701
     20          6           0        3.173727   -9.143661    2.684511
     21          6           0        3.066717  -11.165084    4.124274
     22          1           0        4.016486   -9.031414    1.982362
     23          1           0        3.462633   -8.746043    3.666542
     24          1           0        2.313741   -8.568269    2.305379
     25          1           0        2.730560  -12.206731    4.094450
     26          1           0        2.524709  -10.616978    4.914416
     27          1           0        4.144656  -11.130952    4.359239
     28          6           0        3.000161   -4.772584   -1.661495
     29          1           0        2.513382   -4.106730   -2.376989
     30          6           0        3.414508   -4.284001   -0.410632
     31          6           0        3.234001   -6.100500   -1.952818
     32          8           0        3.233029   -2.985146   -0.133933
     33          6           0        4.033553   -5.158132    0.540832
     34          6           0        3.857905   -6.987827   -1.079294
     35          9           0        2.847843   -6.567691   -3.189117
     36          1           0        3.703481   -2.888237    0.814525
     37          6           0        4.248757   -6.495203    0.159082
     38          6           0        4.465162   -4.597544    1.845107
     39          1           0        4.078481   -8.010016   -1.387404
     40          8           0        4.369205   -3.320608    1.996474
     41          1           0        4.778356   -7.173431    0.826463
     42          6           0        4.954161   -5.441719    2.884855
     43          6           0        5.430636   -4.894741    4.065405
     44          1           0        4.917383   -6.521437    2.759800
     45          1           0        5.464291   -3.804198    4.148496
     46          7           0        5.846253   -5.554590    5.148074
     47          6           0        5.786213   -7.009373    5.253400
     48          6           0        6.289942   -4.849653    6.343200
     49          1           0        4.760907   -7.342420    5.500937
     50          1           0        6.107555   -7.481233    4.314697
     51          1           0        6.461944   -7.337950    6.056641
     52          1           0        5.615546   -5.068313    7.190408
     53          1           0        6.300203   -3.769858    6.154429
     54          1           0        7.301089   -5.190434    6.622721
 ---------------------------------------------------------------------

 SCF Done:  E(RwB97XD) =  -1462.78123649     A.U. after   17 cycles

 Excitation energies and oscillator strengths:

 Excited state symmetry could not be determined.
 Excited State   1:      Singlet-?Sym    3.8822 eV  319.37 nm  f=0.1362  <S**2>=0.000
     109 ->111         0.28577
     110 ->112         0.61677
 This state for optimization and/or second-order correction.
 Total Energy, E(TD-HF/TD-KS) =  -1462.63856818
 Copying the excited state density for this state as the 1-particle RhoCI density.

 Excited state symmetry could not be determined.
 Excited State   2:      Singlet-?Sym    3.9721 eV  312.14 nm  f=0.8212  <S**2>=0.000
     109 ->111         0.61318
     110 ->112        -0.28649

 Excited state symmetry could not be determined.
 Excited State   3:      Singlet-?Sym    4.2106 eV  294.46 nm  f=0.0004  <S**2>=0.000
     105 ->112         0.68415

 Excited state symmetry could not be determined.
 Excited State   4:      Singlet-?Sym    4.2319 eV  292.97 nm  f=0.0052  <S**2>=0.000
     103 ->111        -0.67334
     104 ->111         0.11349

 Alpha  occ. eigenvalues --  -24.82416 -24.80591 -19.25400 -19.24352 -19.23661
 Alpha  occ. eigenvalues --  -19.23075 -14.52100 -14.50902 -10.39656 -10.39438
 Alpha  occ. eigenvalues --  -10.38329 -10.37847 -10.37679 -10.37403 -10.36781
 Alpha  occ. eigenvalues --  -10.36493 -10.36384 -10.35847 -10.35729 -10.35642
 Alpha  occ. eigenvalues --  -10.32468 -10.31241 -10.30531 -10.30507 -10.30103
 Alpha  occ. eigenvalues --  -10.29939 -10.29558 -10.28756 -10.28473 -10.28275
 Alpha  occ. eigenvalues --   -1.32992  -1.31133  -1.16322  -1.14684  -1.12342
 Alpha  occ. eigenvalues --   -1.11358  -1.10778  -1.10279  -0.97779  -0.95921
 Alpha  occ. eigenvalues --   -0.91739  -0.90516  -0.88243  -0.87446  -0.86693
 Alpha  occ. eigenvalues --   -0.86623  -0.86066  -0.84200  -0.82640  -0.81407
 Alpha  occ. eigenvalues --   -0.75420  -0.73805  -0.72790  -0.71226  -0.71028
 Alpha  occ. eigenvalues --   -0.69636  -0.67476  -0.66225  -0.65013  -0.64393
 Alpha  occ. eigenvalues --   -0.63781  -0.62572  -0.61947  -0.60945  -0.60614
 Alpha  occ. eigenvalues --   -0.60294  -0.59983  -0.59360  -0.59014  -0.57461
 Alpha  occ. eigenvalues --   -0.56494  -0.56040  -0.54651  -0.54619  -0.54413
 Alpha  occ. eigenvalues --   -0.54003  -0.53777  -0.53622  -0.53118  -0.52833
 Alpha  occ. eigenvalues --   -0.52760  -0.52320  -0.52251  -0.51796  -0.51426
 Alpha  occ. eigenvalues --   -0.50972  -0.50784  -0.50526  -0.49478  -0.48865
 Alpha  occ. eigenvalues --   -0.48695  -0.47923  -0.47478  -0.46866  -0.46344
 Alpha  occ. eigenvalues --   -0.45152  -0.44332  -0.44050  -0.43125  -0.42781
 Alpha  occ. eigenvalues --   -0.42426  -0.41168  -0.35619  -0.34799  -0.34174
 Alpha  occ. eigenvalues --   -0.33184  -0.32410  -0.31026  -0.30389  -0.28763
 Alpha virt. eigenvalues --   -0.02100  -0.00827   0.00786   0.02439   0.03436
 Alpha virt. eigenvalues --    0.03651   0.04039   0.04430   0.05269   0.05351
 Alpha virt. eigenvalues --    0.05516   0.05927   0.06105   0.06535   0.06646

 Mulliken charges:
               1
     1  C   -0.583725
     2  C   -0.191522
     3  F   -0.158387
     4  C   -0.133327
     5  H    0.264321
     6  C   -0.609262
     7  C   -0.160881
     8  H    0.292015
     9  O   -0.367066
    10  C    1.079757
    11  H   -0.008898
    12  H    0.439125
    13  C   -0.090969
    14  O   -0.403938
    15  C   -0.287598
    16  C    0.419487
    17  H   -0.075877
    18  H    0.252644
    19  N    0.241344
    20  C   -0.840194
    21  C   -0.324107
    22  H    0.208822
    23  H    0.194610
    24  H    0.256095
    25  H    0.148743
    26  H    0.188939
    27  H    0.182994
    28  C   -0.284186
    29  H    0.279171
    30  C   -0.112939
    31  C   -0.445046
    32  O   -0.347305
    33  C    0.899566
    34  C   -0.233831
    35  F   -0.140152
    36  H    0.426706
    37  C   -0.303945
    38  C   -0.477960
    39  H    0.271862
    40  O   -0.369662
    41  H    0.067258
    42  C   -0.199209
    43  C    0.360387
    44  H   -0.022354
    45  H    0.245941
    46  N    0.209442
    47  C   -0.574350
    48  C   -0.306935
    49  H    0.229393
    50  H    0.198322
    51  H    0.176299
    52  H    0.185118
    53  H    0.147321
    54  H    0.187944
 Sum of Mulliken charges =   0.00000

 Dipole moment (field-independent basis, Debye):
    X=              7.0804    Y=              1.3106    Z=             15.3814  Tot=             16.9834
 Quadrupole moment (field-independent basis, Debye-Ang):
   XX=           -132.9050   YY=           -246.4923   ZZ=           -132.9219
   XY=            -62.7286   XZ=             63.3570   YZ=           -133.5540

 Normal termination of Gaussian 09 at Fri Nov  3 02:57:32 2017.
