 Gaussian 09, Revision D.01,
 Gaussian 09:  ES64L-G09RevD.01 24-Apr-2013

 ------------------------------------------
 #p wb97xd 6-311++G** td=(nstates=4) nosymm
 ------------------------------------------

 -----
 Title
 -----
 Symbolic Z-matrix:
 Charge =  0 Multiplicity = 1

                          Input orientation:
 ---------------------------------------------------------------------
 Center     Atomic      Atomic             Coordinates (Angstroms)
 Number     Number       Type             X           Y           Z
 ---------------------------------------------------------------------
      1          6           0        0.711266  -10.352067   -4.455065
      2          6           0        0.524838  -11.682836   -4.135836
      3          9           0        0.400627   -9.952529   -5.735743
      4          6           0        1.187527   -9.399635   -3.554250
      5          1           0        0.130037  -12.394456   -4.865141
      6          6           0        0.804151  -12.095430   -2.821006
      7          6           0        1.478955   -9.829641   -2.265862
      8          1           0        1.306509   -8.355346   -3.847943
      9          8           0        0.587417  -13.377633   -2.483228
     10          6           0        1.302394  -11.164375   -1.854181
     11          1           0        1.838291   -9.085565   -1.554816
     12          1           0        0.843731  -13.385183   -1.443578
     13          6           0        1.566194  -11.642445   -0.477235
     14          8           0        1.294958  -12.881802   -0.216549
     15          6           0        2.106870  -10.782651    0.521136
     16          6           0        2.324617  -11.247330    1.805567
     17          1           0        2.356875   -9.756222    0.265331
     18          1           0        2.065237  -12.284592    2.038284
     19          7           0        2.816311  -10.546919    2.828701
     20          6           0        3.173727   -9.143661    2.684511
     21          6           0        3.066717  -11.165084    4.124274
     22          1           0        4.016486   -9.031414    1.982362
     23          1           0        3.462633   -8.746043    3.666542
     24          1           0        2.313741   -8.568269    2.305379
     25          1           0        2.730560  -12.206731    4.094450
     26          1           0        2.524709  -10.616978    4.914416
     27          1           0        4.144656  -11.130952    4.359239
     28          1           0        1.241451  -14.781049   -6.056648
     29          6           0        1.917182  -15.109626   -5.253396
     30          1           0        2.942488  -14.776579   -5.500933
     31          1           0        1.595839  -14.637766   -4.314693
     32          7           0        1.857142  -16.564408   -5.148080
     33          6           0        1.413453  -17.269346   -6.343196
     34          6           0        2.272759  -17.224258   -4.065401
     35          1           0        1.403192  -18.349141   -6.154426
     36          1           0        0.402315  -16.928565   -6.622727
     37          1           0        2.087858  -17.050686   -7.190404
     38          1           0        2.239104  -18.314801   -4.148492
     39          6           0        2.749244  -16.677280   -2.884851
     40          6           0        3.238233  -17.521455   -1.845103
     41          1           0        2.786011  -15.597562   -2.759796
     42          8           0        3.334190  -18.798391   -1.996470
     43          6           0        3.669842  -16.960867   -0.540828
     44          1           0        3.999924  -19.230762   -0.814521
     45          6           0        3.454638  -15.623796   -0.159088
     46          6           0        4.288887  -17.834998    0.410626
     47          8           0        4.470365  -19.133853    0.133937
     48          1           0        2.925038  -14.945568   -0.826469
     49          6           0        3.845500  -15.131172    1.079298
     50          6           0        4.703234  -17.346415    1.661499
     51          1           0        3.624914  -14.108983    1.387398
     52          6           0        4.469404  -16.018499    1.952822
     53          1           0        5.190022  -18.012269    2.376983
     54          9           0        4.855562  -15.551308    3.189121
 ---------------------------------------------------------------------

 SCF Done:  E(RwB97XD) =  -1462.78903183     A.U. after   18 cycles

 Excitation energies and oscillator strengths:

 Excited state symmetry could not be determined.
 Excited State   1:      Singlet-?Sym    3.9076 eV  317.29 nm  f=0.0364  <S**2>=0.000
     108 ->111         0.50849
     109 ->111         0.10456
     110 ->112         0.44428
 This state for optimization and/or second-order correction.
 Total Energy, E(TD-HF/TD-KS) =  -1462.64542909
 Copying the excited state density for this state as the 1-particle RhoCI density.

 Excited state symmetry could not be determined.
 Excited State   2:      Singlet-?Sym    4.0343 eV  307.33 nm  f=1.0803  <S**2>=0.000
     108 ->111        -0.43202
     110 ->112         0.51353

 Excited state symmetry could not be determined.
 Excited State   3:      Singlet-?Sym    4.2829 eV  289.49 nm  f=0.0086  <S**2>=0.000
     105 ->112         0.66754
     106 ->112         0.14185

 Excited state symmetry could not be determined.
 Excited State   4:      Singlet-?Sym    4.2996 eV  288.36 nm  f=0.0002  <S**2>=0.000
     103 ->111        -0.68475

 Alpha  occ. eigenvalues --  -24.82513 -24.80877 -19.25817 -19.24352 -19.23329
 Alpha  occ. eigenvalues --  -19.21856 -14.51315 -14.49186 -10.39664 -10.39570
 Alpha  occ. eigenvalues --  -10.37665 -10.37389 -10.37188 -10.37049 -10.35477
 Alpha  occ. eigenvalues --  -10.35360 -10.35223 -10.35010 -10.33934 -10.32912
 Alpha  occ. eigenvalues --  -10.32403 -10.31340 -10.30599 -10.30348 -10.29804
 Alpha  occ. eigenvalues --  -10.29544 -10.28847 -10.28296 -10.27922 -10.27053
 Alpha  occ. eigenvalues --   -1.33056  -1.31455  -1.16528  -1.14120  -1.12289
 Alpha  occ. eigenvalues --   -1.10661  -1.09998  -1.08418  -0.97830  -0.95496
 Alpha  occ. eigenvalues --   -0.91239  -0.88914  -0.88172  -0.86520  -0.86129
 Alpha  occ. eigenvalues --   -0.85845  -0.84236  -0.83796  -0.82042  -0.79923
 Alpha  occ. eigenvalues --   -0.75349  -0.73086  -0.72716  -0.70880  -0.70376
 Alpha  occ. eigenvalues --   -0.68630  -0.66987  -0.64635  -0.64553  -0.64287
 Alpha  occ. eigenvalues --   -0.62509  -0.62153  -0.61838  -0.60250  -0.59893
 Alpha  occ. eigenvalues --   -0.59506  -0.58985  -0.57983  -0.57797  -0.56752
 Alpha  occ. eigenvalues --   -0.56529  -0.55857  -0.54862  -0.54436  -0.53688
 Alpha  occ. eigenvalues --   -0.53546  -0.52898  -0.52832  -0.52546  -0.51942
 Alpha  occ. eigenvalues --   -0.51661  -0.51327  -0.50962  -0.50815  -0.50710
 Alpha  occ. eigenvalues --   -0.50483  -0.50044  -0.49394  -0.48822  -0.48408
 Alpha  occ. eigenvalues --   -0.48222  -0.47631  -0.47060  -0.45897  -0.45565
 Alpha  occ. eigenvalues --   -0.44862  -0.44420  -0.43322  -0.43180  -0.41965
 Alpha  occ. eigenvalues --   -0.41224  -0.40833  -0.35726  -0.34949  -0.33257
 Alpha  occ. eigenvalues --   -0.32606  -0.32312  -0.30301  -0.29818  -0.27879
 Alpha virt. eigenvalues --   -0.02020   0.00450   0.02106   0.03430   0.03656
 Alpha virt. eigenvalues --    0.03856   0.04880   0.05131   0.05686   0.05903
 Alpha virt. eigenvalues --    0.05943   0.06290   0.06394   0.06771   0.06896

 Mulliken charges:
               1
     1  C   -0.643471
     2  C   -0.344226
     3  F   -0.155996
     4  C   -0.171559
     5  H    0.236342
     6  C   -0.284723
     7  C   -0.812548
     8  H    0.253431
     9  O   -0.319329
    10  C    1.396550
    11  H    0.137543
    12  H    0.509028
    13  C   -0.153441
    14  O   -0.318565
    15  C   -0.498012
    16  C    0.396579
    17  H    0.055356
    18  H    0.243384
    19  N    0.189365
    20  C   -0.425895
    21  C   -0.330043
    22  H    0.201077
    23  H    0.208800
    24  H    0.192424
    25  H    0.147316
    26  H    0.180029
    27  H    0.206273
    28  H    0.182226
    29  C   -0.654971
    30  H    0.220974
    31  H    0.236005
    32  N    0.212274
    33  C   -0.314092
    34  C    0.283862
    35  H    0.139325
    36  H    0.179513
    37  H    0.190418
    38  H    0.242859
    39  C   -0.311421
    40  C   -0.431766
    41  H    0.116320
    42  O   -0.386085
    43  C    1.072417
    44  H    0.429675
    45  C   -0.172463
    46  C   -0.277385
    47  O   -0.362085
    48  H   -0.176060
    49  C   -0.052753
    50  C   -0.300144
    51  H    0.189153
    52  C   -0.448288
    53  H    0.263297
    54  F   -0.166495
 Sum of Mulliken charges =   0.00000

 Dipole moment (field-independent basis, Debye):
    X=             -0.7724    Y=              9.1819    Z=              0.2828  Tot=              9.2186
 Quadrupole moment (field-independent basis, Debye-Ang):
   XX=           -193.8410   YY=           -433.1479   ZZ=           -135.9970
   XY=             55.4107   XZ=              3.2704   YZ=             34.2099

 Normal termination of Gaussian 09 at Fri Nov  3 01:02:48 2017.
