 Gaussian 09, Revision D.01,
 Gaussian 09:  ES64L-G09RevD.01 24-Apr-2013

 ------------------------------------------
 #p wb97xd 6-311++G** td=(nstates=4) nosymm
 ------------------------------------------

 -----
 Title
 -----
 Symbolic Z-matrix:
 Charge =  0 Multiplicity = 1

                          Input orientation:
 ---------------------------------------------------------------------
 Center     Atomic      Atomic             Coordinates (Angstroms)
 Number     Number       Type             X           Y           Z
 ---------------------------------------------------------------------
      1          6           0       -0.242207  -15.909153   -0.278636
      2          1           0       -0.252468  -14.829358   -0.089876
      3          1           0       -1.253355  -16.249934   -0.558167
      4          1           0        0.432188  -16.127813   -1.125854
      5          7           0        0.201487  -16.614090    0.916476
      6          6           0        0.261517  -18.068873    0.811160
      7          6           0        0.617094  -15.954241    1.999155
      8          1           0       -0.414204  -18.397450    0.007919
      9          1           0        1.286833  -18.401920    0.563623
     10          1           0       -0.059815  -18.540733    1.749863
     11          1           0        0.583439  -14.863698    1.916064
     12          6           0        1.093579  -16.501219    3.179705
     13          6           0        1.582578  -15.657044    4.219453
     14          1           0        1.130357  -17.580937    3.304760
     15          8           0        1.678535  -14.380108    4.068086
     16          6           0        2.014177  -16.217632    5.523728
     17          1           0        2.344259  -13.947737    5.250035
     18          6           0        2.633227  -15.343501    6.475186
     19          6           0        1.798983  -17.554703    5.905478
     20          8           0        2.814705  -14.044646    6.198487
     21          6           0        3.047574  -15.832084    7.726059
     22          6           0        2.189840  -18.047327    7.143848
     23          1           0        1.269384  -18.232931    5.238097
     24          1           0        3.534352  -15.166230    8.441543
     25          6           0        2.813744  -17.160000    8.017382
     26          1           0        1.969254  -19.069516    7.451958
     27          9           0        3.199892  -17.627191    9.253681
 ---------------------------------------------------------------------

 SCF Done:  E(RwB97XD) =  -731.387912707     A.U. after   17 cycles

 Excitation energies and oscillator strengths:

 Excited state symmetry could not be determined.
 Excited State   1:      Singlet-?Sym    3.9736 eV  312.02 nm  f=0.5718  <S**2>=0.000
      55 -> 56         0.67975
 This state for optimization and/or second-order correction.
 Total Energy, E(TD-HF/TD-KS) =  -731.241885835
 Copying the excited state density for this state as the 1-particle RhoCI density.

 Excited state symmetry could not be determined.
 Excited State   2:      Singlet-?Sym    4.2529 eV  291.53 nm  f=0.0059  <S**2>=0.000
      52 -> 56         0.67483
      53 -> 56         0.10836

 Excited state symmetry could not be determined.
 Excited State   3:      Singlet-?Sym    4.5474 eV  272.65 nm  f=0.2020  <S**2>=0.000
      54 -> 56         0.67083

 Excited state symmetry could not be determined.
 Excited State   4:      Singlet-?Sym    5.1937 eV  238.72 nm  f=0.0302  <S**2>=0.000
      53 -> 56         0.55454
      54 -> 59        -0.11359
      54 -> 60         0.10785
      54 -> 61        -0.11156
      55 -> 59        -0.15257
      55 -> 60         0.15113
      55 -> 61        -0.18327
      55 -> 64        -0.10813

 Alpha  occ. eigenvalues --  -24.81115 -19.24248 -19.23108 -14.50761 -10.38371
 Alpha  occ. eigenvalues --  -10.38142 -10.36524 -10.36156 -10.35279 -10.35176
 Alpha  occ. eigenvalues --  -10.31050 -10.29924 -10.29185 -10.28718 -10.28698
 Alpha  occ. eigenvalues --   -1.31680  -1.15143  -1.11136  -1.10035  -0.96460
 Alpha  occ. eigenvalues --   -0.90406  -0.86929  -0.86042  -0.84763  -0.81338
 Alpha  occ. eigenvalues --   -0.74095  -0.71446  -0.69848  -0.66115  -0.63702
 Alpha  occ. eigenvalues --   -0.63039  -0.60618  -0.59581  -0.59235  -0.57768
 Alpha  occ. eigenvalues --   -0.55172  -0.54720  -0.53119  -0.52671  -0.52443
 Alpha  occ. eigenvalues --   -0.52310  -0.51067  -0.50488  -0.50212  -0.49213
 Alpha  occ. eigenvalues --   -0.47426  -0.46681  -0.45628  -0.43075  -0.42752
 Alpha  occ. eigenvalues --   -0.41749  -0.34406  -0.33522  -0.31100  -0.29093
 Alpha virt. eigenvalues --   -0.00801   0.02172   0.03808   0.04956   0.05061
 Alpha virt. eigenvalues --    0.05333   0.06191   0.06654   0.07375   0.07478
 Alpha virt. eigenvalues --    0.07700   0.08064   0.09166   0.10280   0.10663

 Mulliken charges:
               1
     1  C   -0.334425
     2  H    0.144404
     3  H    0.181960
     4  H    0.189050
     5  N    0.147900
     6  C   -0.439731
     7  C    0.090037
     8  H    0.176300
     9  H    0.217299
    10  H    0.184635
    11  H    0.233777
    12  C   -0.015200
    13  C   -0.579549
    14  H    0.079814
    15  O   -0.365340
    16  C    1.834961
    17  H    0.426129
    18  C    0.226525
    19  C   -1.189093
    20  O   -0.357862
    21  C   -0.342677
    22  C   -0.418590
    23  H    0.099359
    24  H    0.261843
    25  C   -0.530385
    26  H    0.247534
    27  F   -0.168673
 Sum of Mulliken charges =   0.00000

 Dipole moment (field-independent basis, Debye):
    X=             -3.7717    Y=             -3.8238    Z=             -8.0737  Tot=              9.6970
 Quadrupole moment (field-independent basis, Debye-Ang):
   XX=           -100.8640   YY=             34.5877   ZZ=           -145.5002
   XY=             56.2446   XZ=            -23.2913   YZ=            117.4949

 Normal termination of Gaussian 09 at Thu Nov  2 22:06:12 2017.
