 Gaussian 09, Revision D.01,
 Gaussian 09:  ES64L-G09RevD.01 24-Apr-2013

 ------------------------------------------
 #p wb97xd 6-311++G** td=(nstates=4) nosymm
 ------------------------------------------

 -----
 Title
 -----
 Symbolic Z-matrix:
 Charge =  0 Multiplicity = 1

                          Input orientation:
 ---------------------------------------------------------------------
 Center     Atomic      Atomic             Coordinates (Angstroms)
 Number     Number       Type             X           Y           Z
 ---------------------------------------------------------------------
      1          6           0        3.000161   -4.772584   -1.661495
      2          1           0        2.513382   -4.106730   -2.376989
      3          6           0        3.414508   -4.284001   -0.410632
      4          6           0        3.234001   -6.100500   -1.952818
      5          8           0        3.233029   -2.985146   -0.133933
      6          6           0        4.033553   -5.158132    0.540832
      7          6           0        3.857905   -6.987827   -1.079294
      8          9           0        2.847843   -6.567691   -3.189117
      9          1           0        3.703481   -2.888237    0.814525
     10          6           0        4.248757   -6.495203    0.159082
     11          6           0        4.465162   -4.597544    1.845107
     12          1           0        4.078481   -8.010016   -1.387404
     13          8           0        4.369205   -3.320608    1.996474
     14          1           0        4.778356   -7.173431    0.826463
     15          6           0        4.954161   -5.441719    2.884855
     16          6           0        5.430636   -4.894741    4.065405
     17          1           0        4.917383   -6.521437    2.759800
     18          1           0        5.464291   -3.804198    4.148496
     19          7           0        5.846253   -5.554590    5.148074
     20          6           0        5.786213   -7.009373    5.253400
     21          6           0        6.289942   -4.849653    6.343200
     22          1           0        4.760907   -7.342420    5.500937
     23          1           0        6.107555   -7.481233    4.314697
     24          1           0        6.461944   -7.337950    6.056641
     25          1           0        5.615546   -5.068313    7.190408
     26          1           0        6.300203   -3.769858    6.154429
     27          1           0        7.301089   -5.190434    6.622721
 ---------------------------------------------------------------------

 SCF Done:  E(RwB97XD) =  -731.387912422     A.U. after   17 cycles

 Excitation energies and oscillator strengths:

 Excited state symmetry could not be determined.
 Excited State   1:      Singlet-?Sym    3.9736 eV  312.02 nm  f=0.5718  <S**2>=0.000
      55 -> 56         0.67975
 This state for optimization and/or second-order correction.
 Total Energy, E(TD-HF/TD-KS) =  -731.241885385
 Copying the excited state density for this state as the 1-particle RhoCI density.

 Excited state symmetry could not be determined.
 Excited State   2:      Singlet-?Sym    4.2529 eV  291.53 nm  f=0.0059  <S**2>=0.000
      52 -> 56         0.67483
      53 -> 56         0.10835

 Excited state symmetry could not be determined.
 Excited State   3:      Singlet-?Sym    4.5474 eV  272.65 nm  f=0.2020  <S**2>=0.000
      54 -> 56         0.67083

 Excited state symmetry could not be determined.
 Excited State   4:      Singlet-?Sym    5.1937 eV  238.72 nm  f=0.0302  <S**2>=0.000
      53 -> 56         0.55454
      54 -> 59        -0.11358
      54 -> 60         0.10784
      54 -> 61        -0.11158
      55 -> 59        -0.15255
      55 -> 60         0.15111
      55 -> 61        -0.18328
      55 -> 64        -0.10811

 Alpha  occ. eigenvalues --  -24.81115 -19.24247 -19.23108 -14.50761 -10.38371
 Alpha  occ. eigenvalues --  -10.38142 -10.36524 -10.36156 -10.35279 -10.35176
 Alpha  occ. eigenvalues --  -10.31050 -10.29924 -10.29185 -10.28718 -10.28698
 Alpha  occ. eigenvalues --   -1.31680  -1.15143  -1.11135  -1.10035  -0.96460
 Alpha  occ. eigenvalues --   -0.90406  -0.86929  -0.86042  -0.84763  -0.81338
 Alpha  occ. eigenvalues --   -0.74095  -0.71446  -0.69848  -0.66115  -0.63702
 Alpha  occ. eigenvalues --   -0.63039  -0.60618  -0.59581  -0.59235  -0.57768
 Alpha  occ. eigenvalues --   -0.55172  -0.54720  -0.53119  -0.52671  -0.52443
 Alpha  occ. eigenvalues --   -0.52310  -0.51067  -0.50488  -0.50212  -0.49213
 Alpha  occ. eigenvalues --   -0.47426  -0.46681  -0.45628  -0.43075  -0.42753
 Alpha  occ. eigenvalues --   -0.41749  -0.34406  -0.33522  -0.31100  -0.29093
 Alpha virt. eigenvalues --   -0.00801   0.02172   0.03808   0.04956   0.05061
 Alpha virt. eigenvalues --    0.05333   0.06191   0.06654   0.07375   0.07478
 Alpha virt. eigenvalues --    0.07700   0.08064   0.09166   0.10280   0.10663

 Mulliken charges:
               1
     1  C   -0.342658
     2  H    0.261844
     3  C    0.226486
     4  C   -0.530400
     5  O   -0.357865
     6  C    1.834940
     7  C   -0.418578
     8  F   -0.168674
     9  H    0.426129
    10  C   -1.189057
    11  C   -0.579527
    12  H    0.247535
    13  O   -0.365340
    14  H    0.099362
    15  C   -0.015227
    16  C    0.090048
    17  H    0.079812
    18  H    0.233777
    19  N    0.147896
    20  C   -0.439731
    21  C   -0.334420
    22  H    0.217300
    23  H    0.184635
    24  H    0.176298
    25  H    0.189052
    26  H    0.144403
    27  H    0.181961
 Sum of Mulliken charges =   0.00000

 Dipole moment (field-independent basis, Debye):
    X=              3.7717    Y=             -3.8238    Z=              8.0738  Tot=              9.6971
 Quadrupole moment (field-independent basis, Debye-Ang):
   XX=            -55.2438   YY=            -49.9910   ZZ=            -47.5731
   XY=            -37.6576   XZ=             48.4101   YZ=            -51.3945

 Normal termination of Gaussian 09 at Fri Nov  3 00:43:10 2017.
