 Gaussian 09, Revision D.01,
 Gaussian 09:  ES64L-G09RevD.01 24-Apr-2013

 ------------------------------------------------
 # wb97xd 6-311++g** td=(root=1,nstates=1) nosymm
 ------------------------------------------------

 ---------------------
 Monomer Excitation H1
 ---------------------
 Symbolic Z-matrix:
 Charge =  0 Multiplicity = 1

                          Input orientation:
 ---------------------------------------------------------------------
 Center     Atomic      Atomic             Coordinates (Angstroms)
 Number     Number       Type             X           Y           Z
 ---------------------------------------------------------------------
      1          1           0        3.249809    1.255049    1.149636
      2          6           0        3.156912    0.167462    1.080475
      3          1           0        3.018558   -0.097841    0.031927
      4          1           0        4.079346   -0.295969    1.443957
      5          7           0        2.022127   -0.300574    1.856453
      6          6           0        0.971087   -0.884025    1.280550
      7          6           0        2.014763   -0.017902    3.278582
      8          6           0       -0.181857   -1.281173    1.903170
      9          1           0        1.056240   -1.062342    0.212470
     10          1           0        1.819639   -0.932225    3.848537
     11          1           0        2.987944    0.374064    3.571110
     12          1           0        1.248162    0.724955    3.527576
     13          6           0       -1.172143   -1.994760    1.145085
     14          1           0       -0.335935   -1.105601    2.956483
     15          6           0       -2.465425   -2.364375    1.787541
     16          8           0       -0.977156   -2.330632   -0.042860
     17          6           0       -3.298074   -3.321217    1.163794
     18          6           0       -2.903713   -1.792329    2.990652
     19          1           0       -2.151107   -3.452800   -0.305064
     20          6           0       -4.498958   -3.704170    1.771591
     21          8           0       -2.983612   -3.890922   -0.005857
     22          6           0       -4.101957   -2.154185    3.576386
     23          1           0       -2.299292   -1.030018    3.466700
     24          6           0       -4.894978   -3.124585    2.961132
     25          1           0       -5.106508   -4.452301    1.275116
     26          1           0       -4.421720   -1.687315    4.500109
     27          1           0       -5.835213   -3.421827    3.413024
 ---------------------------------------------------------------------

 SCF Done:  E(RwB97XD) =  -632.151790799     A.U. after   17 cycles

 Excitation energies and oscillator strengths:

 Excited state symmetry could not be determined.
 Excited State   1:      Singlet-?Sym    4.1446 eV  299.15 nm  f=0.4072  <S**2>=0.000
      48 -> 52         0.26234
      49 -> 52         0.15303
      51 -> 52         0.60842
 This state for optimization and/or second-order correction.
 Total Energy, E(TD-HF/TD-KS) =  -631.999479677
 Copying the excited state density for this state as the 1-particle RhoCI density.

 Alpha  occ. eigenvalues --  -19.24880 -19.21894 -14.49399 -10.37010 -10.34844
 Alpha  occ. eigenvalues --  -10.34825 -10.34230 -10.33901 -10.29278 -10.29050
 Alpha  occ. eigenvalues --  -10.28899 -10.27835 -10.27629 -10.27254  -1.15726
 Alpha  occ. eigenvalues --   -1.12094  -1.09254  -0.95517  -0.89493  -0.86128
 Alpha  occ. eigenvalues --   -0.85524  -0.83597  -0.80393  -0.73520  -0.70032
 Alpha  occ. eigenvalues --   -0.68702  -0.65191  -0.63185  -0.60275  -0.59041
 Alpha  occ. eigenvalues --   -0.58849  -0.58046  -0.55152  -0.53224  -0.52104
 Alpha  occ. eigenvalues --   -0.51807  -0.51397  -0.51173  -0.50329  -0.49789
 Alpha  occ. eigenvalues --   -0.47105  -0.46774  -0.46166  -0.45178  -0.42230
 Alpha  occ. eigenvalues --   -0.41928  -0.41819  -0.33668  -0.33126  -0.30016
 Alpha  occ. eigenvalues --   -0.28724
 Alpha virt. eigenvalues --    0.00414   0.02608   0.04154   0.04967   0.05618
 Alpha virt. eigenvalues --    0.05902   0.06185   0.06515   0.07604   0.07938
 Alpha virt. eigenvalues --    0.08019   0.08328   0.08404   0.10111   0.10204

 Mulliken charges:
               1
     1  H    0.183410
     2  C   -0.326186
     3  H    0.141799
     4  H    0.182820
     5  N    0.130045
     6  C    0.233595
     7  C   -0.440236
     8  C   -0.068928
     9  H    0.230783
    10  H    0.189122
    11  H    0.197832
    12  H    0.195457
    13  C   -0.802630
    14  H    0.096785
    15  C    1.671437
    16  O   -0.337010
    17  C    0.093902
    18  C   -1.106988
    19  H    0.352421
    20  C   -0.453802
    21  O   -0.285690
    22  C   -0.597866
    23  H    0.101829
    24  C   -0.223408
    25  H    0.227829
    26  H    0.212632
    27  H    0.201047
 Sum of Mulliken charges =   0.00000

 Dipole moment (field-independent basis, Debye):
    X=              5.0972    Y=              3.9738    Z=              3.3189  Tot=              7.2655
 Quadrupole moment (field-independent basis, Debye-Ang):
   XX=            -74.3380   YY=            -97.5899   ZZ=            -72.7694
   XY=             -3.8752   XZ=              0.9521   YZ=             -0.1052

 Normal termination of Gaussian 09 at Mon Sep 18 15:11:22 2017.
