 Gaussian 09, Revision D.01,
 Gaussian 09:  ES64L-G09RevD.01 24-Apr-2013

 --------------------------------------------------
 # wb97xd 6-311++g** td=(singlets,nstates=1) nosymm
 --------------------------------------------------

 ---------------------
 Monomer Exictation J1
 ---------------------
 Symbolic Z-matrix:
 Charge =  0 Multiplicity = 1

                          Input orientation:
 ---------------------------------------------------------------------
 Center     Atomic      Atomic             Coordinates (Angstroms)
 Number     Number       Type             X           Y           Z
 ---------------------------------------------------------------------
      1          1           0        0.808278    1.713509    1.799433
      2          6           0        0.581420    1.293560    2.767584
      3          6           0        1.556037    0.458959    3.442038
      4          6           0       -0.601627    1.545703    3.389144
      5          6           0        2.845109    0.146510    2.769383
      6          8           0        1.348961    0.019626    4.588492
      7          1           0       -0.779696    1.063129    4.346396
      8          7           0       -1.587574    2.356426    2.962433
      9          6           0        3.890255   -0.444474    3.516121
     10          6           0        3.071142    0.419696    1.412774
     11          1           0        2.816130   -0.589386    5.038175
     12          6           0       -1.484488    3.046062    1.692542
     13          6           0       -2.886045    2.353027    3.605579
     14          6           0        5.126913   -0.690212    2.908777
     15          8           0        3.754973   -0.779870    4.802038
     16          6           0        4.285648    0.148700    0.811836
     17          1           0        2.271593    0.831557    0.811104
     18          1           0       -1.662197    2.369891    0.847920
     19          1           0       -2.224397    3.847997    1.661639
     20          1           0       -0.493171    3.489494    1.582694
     21          1           0       -2.818827    1.853707    4.572311
     22          1           0       -3.231297    3.379298    3.768317
     23          1           0       -3.632013    1.829713    2.993364
     24          6           0        5.319830   -0.396616    1.574026
     25          1           0        5.912601   -1.124016    3.514929
     26          1           0        4.426974    0.351858   -0.242450
     27          1           0        6.281884   -0.601060    1.116508
 ---------------------------------------------------------------------

 SCF Done:  E(RwB97XD) =  -632.152396753     A.U. after   17 cycles

 Excitation energies and oscillator strengths:

 Excited state symmetry could not be determined.
 Excited State   1:      Singlet-?Sym    4.1532 eV  298.53 nm  f=0.4575  <S**2>=0.000
      48 -> 52         0.22002
      49 -> 52         0.10164
      51 -> 52         0.63347
 This state for optimization and/or second-order correction.
 Total Energy, E(TD-HF/TD-KS) =  -631.999771082
 Copying the excited state density for this state as the 1-particle RhoCI density.

 Alpha  occ. eigenvalues --  -19.25164 -19.22213 -14.49031 -10.37263 -10.35049
 Alpha  occ. eigenvalues --  -10.34674 -10.33914 -10.33646 -10.29450 -10.29220
 Alpha  occ. eigenvalues --  -10.29072 -10.27980 -10.27772 -10.27372  -1.16096
 Alpha  occ. eigenvalues --   -1.12566  -1.08739  -0.95722  -0.89469  -0.86275
 Alpha  occ. eigenvalues --   -0.85196  -0.83785  -0.80069  -0.73711  -0.70163
 Alpha  occ. eigenvalues --   -0.68811  -0.65168  -0.63087  -0.60416  -0.59128
 Alpha  occ. eigenvalues --   -0.58538  -0.58052  -0.55349  -0.53273  -0.51958
 Alpha  occ. eigenvalues --   -0.51710  -0.51455  -0.51240  -0.50334  -0.49500
 Alpha  occ. eigenvalues --   -0.47226  -0.46771  -0.46499  -0.45381  -0.42421
 Alpha  occ. eigenvalues --   -0.42131  -0.41702  -0.33840  -0.33400  -0.30110
 Alpha  occ. eigenvalues --   -0.28856
 Alpha virt. eigenvalues --    0.00288   0.02750   0.04179   0.04980   0.05598
 Alpha virt. eigenvalues --    0.05918   0.06184   0.06499   0.07652   0.07903
 Alpha virt. eigenvalues --    0.08108   0.08381   0.08527   0.10020   0.10126

 Mulliken charges:
               1
     1  H    0.082645
     2  C   -0.141644
     3  C   -0.748702
     4  C    0.282844
     5  C    1.776036
     6  O   -0.329128
     7  H    0.224367
     8  N    0.127437
     9  C    0.217406
    10  C   -1.284554
    11  H    0.359471
    12  C   -0.437533
    13  C   -0.313948
    14  C   -0.489061
    15  O   -0.292774
    16  C   -0.590095
    17  H    0.100224
    18  H    0.203893
    19  H    0.177663
    20  H    0.180030
    21  H    0.145789
    22  H    0.168798
    23  H    0.179376
    24  C   -0.241587
    25  H    0.228027
    26  H    0.213809
    27  H    0.201212
 Sum of Mulliken charges =   0.00000

 Dipole moment (field-independent basis, Debye):
    X=             -4.9191    Y=              3.4818    Z=             -3.1500  Tot=              6.8002
 Quadrupole moment (field-independent basis, Debye-Ang):
   XX=            -78.9121   YY=            -78.1606   ZZ=           -102.3611
   XY=             -7.2253   XZ=            -24.2939   YZ=              8.3148

 Normal termination of Gaussian 09 at Mon Sep 18 15:24:47 2017.
