 Gaussian 09, Revision D.01,
 Gaussian 09:  ES64L-G09RevD.01 24-Apr-2013

 --------------------------------------------------
 # wb97xd 6-311++g** td=(singlets,nstates=1) nosymm
 --------------------------------------------------

 ---------------------
 Monomer Excitation J2
 ---------------------
 Symbolic Z-matrix:
 Charge =  0 Multiplicity = 1

                          Input orientation:
 ---------------------------------------------------------------------
 Center     Atomic      Atomic             Coordinates (Angstroms)
 Number     Number       Type             X           Y           Z
 ---------------------------------------------------------------------
      1          6           0        0.172341   -0.187617   -2.513281
      2          6           0       -1.159280   -0.530958   -1.948253
      3          6           0        0.999324    0.726072   -1.820478
      4          6           0        0.658540   -0.735505   -3.710156
      5          6           0       -2.064376   -1.389635   -2.681212
      6          8           0       -1.484290   -0.059676   -0.839821
      7          6           0        2.258423    1.060020   -2.329142
      8          8           0        0.621977    1.299573   -0.671555
      9          1           0       -0.251704    0.892357   -0.441721
     10          6           0        1.901769   -0.403627   -4.211587
     11          1           0        0.053759   -1.445943   -4.259628
     12          6           0       -3.253773   -1.710577   -2.098465
     13          1           0       -1.804856   -1.753759   -3.663895
     14          6           0        2.702534    0.499963   -3.510111
     15          1           0        2.867752    1.758760   -1.767654
     16          1           0        2.253370   -0.846389   -5.135799
     17          1           0       -3.441076   -1.319371   -1.102273
     18          7           0       -4.234034   -2.457669   -2.623664
     19          1           0        3.683379    0.761646   -3.891993
     20          6           0       -4.096938   -3.015073   -3.954991
     21          6           0       -5.442712   -2.754541   -1.878978
     22          1           0       -3.912790   -2.222641   -4.688619
     23          1           0       -5.018438   -3.528928   -4.225763
     24          1           0       -3.268862   -3.731619   -3.998260
     25          1           0       -5.393468   -2.277174   -0.900074
     26          1           0       -5.556990   -3.833238   -1.732732
     27          1           0       -6.325552   -2.375343   -2.404822
 ---------------------------------------------------------------------

 SCF Done:  E(RwB97XD) =  -632.152398154     A.U. after   17 cycles

 Excitation energies and oscillator strengths:

 Excited state symmetry could not be determined.
 Excited State   1:      Singlet-?Sym    4.1441 eV  299.18 nm  f=0.5133  <S**2>=0.000
      51 -> 52         0.66892
 This state for optimization and/or second-order correction.
 Total Energy, E(TD-HF/TD-KS) =  -632.000104216
 Copying the excited state density for this state as the 1-particle RhoCI density.

 Alpha  occ. eigenvalues --  -19.24766 -19.22139 -14.49148 -10.37246 -10.34919
 Alpha  occ. eigenvalues --  -10.34589 -10.34034 -10.33772 -10.29434 -10.29181
 Alpha  occ. eigenvalues --  -10.29040 -10.27928 -10.27701 -10.27290  -1.15838
 Alpha  occ. eigenvalues --   -1.12341  -1.08880  -0.95645  -0.89411  -0.86223
 Alpha  occ. eigenvalues --   -0.85360  -0.83699  -0.80152  -0.73650  -0.70071
 Alpha  occ. eigenvalues --   -0.68715  -0.65163  -0.63110  -0.60229  -0.59066
 Alpha  occ. eigenvalues --   -0.58563  -0.58133  -0.55299  -0.53184  -0.51899
 Alpha  occ. eigenvalues --   -0.51872  -0.51422  -0.51247  -0.50412  -0.49613
 Alpha  occ. eigenvalues --   -0.47009  -0.46770  -0.46405  -0.45322  -0.42276
 Alpha  occ. eigenvalues --   -0.42000  -0.41700  -0.33698  -0.33449  -0.30049
 Alpha  occ. eigenvalues --   -0.28731
 Alpha virt. eigenvalues --    0.00352   0.02665   0.04144   0.04946   0.05721
 Alpha virt. eigenvalues --    0.05866   0.06125   0.06503   0.07640   0.08014
 Alpha virt. eigenvalues --    0.08136   0.08285   0.08478   0.10019   0.10451

 Mulliken charges:
               1
     1  C    1.975605
     2  C   -0.736283
     3  C    0.317605
     4  C   -1.468160
     5  C   -0.472637
     6  O   -0.339692
     7  C   -0.465968
     8  O   -0.305025
     9  H    0.370892
    10  C   -0.732399
    11  H    0.067652
    12  C    0.666604
    13  H    0.116730
    14  C   -0.334062
    15  H    0.229664
    16  H    0.218290
    17  H    0.229328
    18  N    0.122306
    19  H    0.202057
    20  C   -0.442605
    21  C   -0.306708
    22  H    0.185684
    23  H    0.199719
    24  H    0.192094
    25  H    0.142858
    26  H    0.182071
    27  H    0.184380
 Sum of Mulliken charges =   0.00000

 Dipole moment (field-independent basis, Debye):
    X=             -4.4999    Y=             -4.3176    Z=             -3.1742  Tot=              6.9976
 Quadrupole moment (field-independent basis, Debye-Ang):
   XX=            -52.7613   YY=            -76.2325   ZZ=            -68.5775
   XY=             18.5495   XZ=             10.8471   YZ=             12.7420

 Normal termination of Gaussian 09 at Mon Sep 18 15:10:42 2017.
